 written on  8Mar2016 at 01:10:42 
          13
          43
    3    2    1    1    2    3    1    1    1    1    1    3    1    1    1
    1    1    1    2    1    1    1    1    1    2    1    1    1    1    1
    1    3    1    1    1    1    1    3    2    1    1    2    3
   -4   -2    0    1    1    0.9528973688E-03   -0.3672763792E-09
   -4   -2    0    2    1   -0.1496553773E-07   -0.4923486515E-12
   -4   -2    0    3    1   -0.2081012746E-07   -0.3793623801E-11
   -4   -2    0    4    1   -0.1409873986E-02    0.3011819075E-09
   -4   -2    0    5    1   -0.1095496322E-02   -0.5219222589E-09
   -4   -2    0    6    1    0.1047734570E-02    0.6264492372E-07
   -4   -2    0    7    1   -0.3101011953E-03    0.1221007885E-07
   -4   -2    0    8    1    0.2754778845E-03   -0.9557970661E-07
   -4   -2    0    9    1    0.1470568075E-02   -0.8120921495E-07
   -4   -2    0   10    1    0.1048648918E-02    0.6264383612E-07
   -4   -2    0   11    1    0.3099221809E-03   -0.1219771642E-07
   -4   -2    0   12    1    0.2740168126E-03   -0.9557507143E-07
   -4   -2    0   13    1    0.1469186674E-02   -0.8121152126E-07
   -4   -2    0    1    2   -0.1651371097E-07   -0.2694917982E-11
   -4   -2    0    2    2    0.4179922427E-02   -0.2724835031E-09
   -4   -2    0    3    2   -0.3333308159E-05   -0.1923684458E-09
   -4   -2    0    4    2   -0.9445249984E-08   -0.1294058166E-10
   -4   -2    0    5    2    0.3573299795E-07    0.4877549093E-11
   -4   -2    0    6    2    0.2124219879E-02   -0.9691178184E-07
   -4   -2    0    7    2    0.1625779094E-03    0.1468211893E-07
   -4   -2    0    8    2    0.1643028958E-02    0.1432526658E-06
   -4   -2    0    9    2   -0.5705079898E-03    0.6454353867E-07
   -4   -2    0   10    2   -0.2122755670E-02    0.9690130372E-07
   -4   -2    0   11    2    0.1627582637E-03    0.1469121682E-07
   -4   -2    0   12    2   -0.1645035573E-02   -0.1432702734E-06
   -4   -2    0   13    2    0.5693897895E-03   -0.6454347008E-07
   -4   -2    0    1    3   -0.2589298932E-07   -0.2708976049E-12
   -4   -2    0    2    3    0.4153817817E-05   -0.5787565080E-09
   -4   -2    0    3    3    0.4178648390E-02    0.1794496359E-09
   -4   -2    0    4    3    0.2933556202E-07   -0.3453198736E-12
   -4   -2    0    5    3   -0.5645665832E-08   -0.7166841739E-11
   -4   -2    0    6    3    0.6063091800E-03    0.2908965190E-07
   -4   -2    0    7    3   -0.1599039180E-03   -0.8255701477E-08
   -4   -2    0    8    3   -0.9272192358E-03   -0.8628771771E-07
   -4   -2    0    9    3    0.2120871253E-02   -0.5436944121E-07
   -4   -2    0   10    3   -0.6067914086E-03   -0.2907304506E-07
   -4   -2    0   11    3   -0.1600081929E-03   -0.8245880694E-08
   -4   -2    0   12    3    0.9283866116E-03    0.8631780187E-07
   -4   -2    0   13    3   -0.2119896294E-02    0.5436023692E-07
   -4   -2    0    1    4   -0.1348197396E-02   -0.3057842087E-09
   -4   -2    0    2    4   -0.7464702093E-08    0.1421410916E-10
   -4   -2    0    3    4    0.2534187817E-07    0.9814935311E-11
   -4   -2    0    4    4    0.1080698819E-02   -0.2536300878E-09
   -4   -2    0    5    4   -0.1108775699E-02   -0.4564234060E-09
   -4   -2    0    6    4   -0.1300912336E-02    0.6920101695E-07
   -4   -2    0    7    4    0.2096622288E-02    0.2170293922E-08
   -4   -2    0    8    4   -0.2582059966E-02   -0.8106823956E-07
   -4   -2    0    9    4   -0.3461592168E-03   -0.4798785299E-07
   -4   -2    0   10    4   -0.1299816864E-02    0.6918352279E-07
   -4   -2    0   11    4   -0.2096638119E-02   -0.2165045775E-08
   -4   -2    0   12    4   -0.2583312294E-02   -0.8108058837E-07
   -4   -2    0   13    4   -0.3468957917E-03   -0.4798615132E-07
   -4   -2    0    1    5   -0.1213677783E-02    0.1490897544E-09
   -4   -2    0    2    5    0.3009217971E-07   -0.2149221352E-11
   -4   -2    0    3    5   -0.5822484822E-08   -0.6699855211E-12
   -4   -2    0    4    5   -0.1097982799E-02    0.3562928147E-09
   -4   -2    0    5    5    0.1470529509E-02   -0.6634373410E-09
   -4   -2    0    6    5   -0.5437421356E-03    0.9346868886E-07
   -4   -2    0    7    5   -0.3460787869E-02    0.2545228682E-07
   -4   -2    0    8    5    0.4551140858E-02   -0.8942191367E-07
   -4   -2    0    9    5   -0.5872053223E-03   -0.8293735891E-07
   -4   -2    0   10    5   -0.5422778444E-03    0.9346019243E-07
   -4   -2    0   11    5    0.3460398196E-02   -0.2545032415E-07
   -4   -2    0   12    5    0.4549684978E-02   -0.8942211905E-07
   -4   -2    0   13    5   -0.5884572557E-03   -0.8294139423E-07
   -4   -2    0    1    6   -0.5674818370E-03   -0.6442881420E-07
   -4   -2    0    2    6    0.7351273134E-03    0.7559843060E-07
   -4   -2    0    3    6   -0.2703979256E-02   -0.2901180734E-07
   -4   -2    0    4    6    0.9537400811E-03   -0.6400683995E-07
   -4   -2    0    5    6   -0.1325369533E-04   -0.9478761088E-07
   -4   -2    0    6    6    0.2786220424E-02   -0.1909374490E-09
   -4   -2    0    7    6    0.2611103505E-03   -0.6035070045E-07
   -4   -2    0    8    6    0.1206176494E-02    0.6922094217E-09
   -4   -2    0    9    6    0.1205970102E-02   -0.1354015719E-09
   -4   -2    0   10    6   -0.2372380339E-02    0.7964016394E-08
   -4   -2    0   11    6   -0.1059979443E-02   -0.1541894481E-05
   -4   -2    0   12    6   -0.1773959528E-02    0.1775187383E-07
   -4   -2    0   13    6   -0.1777817780E-02   -0.1290505258E-08
   -4   -2    0    1    7    0.2385298465E-02   -0.1138924379E-07
   -4   -2    0    2    7    0.3610800600E-03   -0.1684390928E-07
   -4   -2    0    3    7   -0.2269831782E-03    0.1048750207E-07
   -4   -2    0    4    7    0.5342244453E-02   -0.2656542174E-09
   -4   -2    0    5    7   -0.2768605916E-02   -0.2488194824E-07
   -4   -2    0    6    7    0.1317255298E-02    0.5859917175E-07
   -4   -2    0    7    7    0.3186244613E-02    0.7463882206E-09
   -4   -2    0    8    7   -0.1324832481E-02   -0.5792372888E-07
   -4   -2    0    9    7   -0.1323403017E-02   -0.5874027761E-07
   -4   -2    0   10    7    0.1035903218E-02   -0.1540199799E-05
   -4   -2    0   11    7   -0.3487467163E-02    0.1989480125E-08
   -4   -2    0   12    7   -0.1033493818E-02    0.1520989164E-05
   -4   -2    0   13    7   -0.1045937190E-02    0.1536830292E-05
   -4   -2    0    1    8   -0.1109381841E-02    0.9490910066E-07
   -4   -2    0    2    8    0.4075799929E-02   -0.1402913909E-06
   -4   -2    0    3    8   -0.2386837192E-02    0.8503614570E-07
   -4   -2    0    4    8   -0.2161893461E-02    0.8940475860E-07
   -4   -2    0    5    8    0.5331929991E-03    0.1009414333E-06
   -4   -2    0    6    8    0.1206354635E-02   -0.3473524662E-09
   -4   -2    0    7    8   -0.2595960573E-03    0.5892802416E-07
   -4   -2    0    8    8    0.2789909581E-02    0.1945604281E-09
   -4   -2    0    9    8   -0.1215895768E-02    0.1479243256E-09
   -4   -2    0   10    8   -0.1772004169E-02   -0.1155878073E-07
   -4   -2    0   11    8    0.1041509312E-02    0.1527795751E-05
   -4   -2    0   12    8   -0.2379174667E-02   -0.1289812137E-07
   -4   -2    0   13    8    0.1769552204E-02    0.1038524761E-07
   -4   -2    0    1    9   -0.9954755090E-03    0.9163239868E-07
   -4   -2    0    2    9   -0.2688084749E-02   -0.7286478653E-07
   -4   -2    0    3    9   -0.7025949942E-03    0.6058111617E-07
   -4   -2    0    4    9    0.1740235743E-03    0.5337970082E-07
   -4   -2    0    5    9    0.5858123235E-03    0.8592305229E-07
   -4   -2    0    6    9    0.1210272737E-02    0.7085255993E-10
   -4   -2    0    7    9   -0.2804827111E-03    0.5992067872E-07
   -4   -2    0    8    9   -0.1201004754E-02   -0.6917070354E-09
   -4   -2    0    9    9    0.2790229126E-02   -0.6846591471E-10
   -4   -2    0   10    9   -0.1783626480E-02   -0.9999031546E-08
   -4   -2    0   11    9    0.1022712941E-02    0.1538088487E-05
   -4   -2    0   12    9    0.1781160816E-02   -0.1668828863E-07
   -4   -2    0   13    9   -0.2389440974E-02    0.7513091941E-08
   -4   -2    0    1   10   -0.5665307596E-03   -0.6442706619E-07
   -4   -2    0    2   10   -0.7337570885E-03   -0.7560633820E-07
   -4   -2    0    3   10    0.2703532257E-02    0.2901497394E-07
   -4   -2    0    4   10    0.9548327654E-03   -0.6398481690E-07
   -4   -2    0    5   10   -0.1176445674E-04   -0.9479841629E-07
   -4   -2    0    6   10   -0.2372422856E-02    0.7965466120E-08
   -4   -2    0    7   10    0.1036639852E-02    0.1541890131E-05
   -4   -2    0    8   10   -0.1774103647E-02    0.1776170450E-07
   -4   -2    0    9   10   -0.1777842274E-02   -0.1296890597E-08
   -4   -2    0   10   10    0.2786827990E-02   -0.1951442528E-09
   -4   -2    0   11   10   -0.2620454354E-03    0.6034220696E-07
   -4   -2    0   12   10    0.1205843311E-02    0.7006686481E-09
   -4   -2    0   13   10    0.1205586356E-02   -0.1347741016E-09
   -4   -2    0    1   11   -0.2385460257E-02    0.1138655165E-07
   -4   -2    0    2   11    0.3612674195E-03   -0.1683136919E-07
   -4   -2    0    3   11   -0.2270919493E-03    0.1046551967E-07
   -4   -2    0    4   11   -0.5342235980E-02    0.2641052325E-09
   -4   -2    0    5   11    0.2768227435E-02    0.2488140877E-07
   -4   -2    0    6   11   -0.1059200188E-02    0.1540190683E-05
   -4   -2    0    7   11   -0.3487492036E-02    0.1990219031E-08
   -4   -2    0    8   11    0.1056637395E-02   -0.1520992490E-05
   -4   -2    0    9   11    0.1069187858E-02   -0.1536829077E-05
   -4   -2    0   10   11   -0.1318168649E-02   -0.5861188359E-07
   -4   -2    0   11   11    0.3186655389E-02    0.7663755298E-09
   -4   -2    0   12   11    0.1325732080E-02    0.5790944356E-07
   -4   -2    0   13   11    0.1324315105E-02    0.5875157500E-07
   -4   -2    0    1   12   -0.1110855329E-02    0.9491060886E-07
   -4   -2    0    2   12   -0.4077748880E-02    0.1403074838E-06
   -4   -2    0    3   12    0.2387955161E-02   -0.8505174338E-07
   -4   -2    0    4   12   -0.2163201499E-02    0.8941130016E-07
   -4   -2    0    5   12    0.5316823924E-03    0.1009347290E-06
   -4   -2    0    6   12   -0.1771896640E-02   -0.1155581686E-07
   -4   -2    0    7   12   -0.1018294998E-02   -0.1527785207E-05
   -4   -2    0    8   12   -0.2379126015E-02   -0.1289230358E-07
   -4   -2    0    9   12    0.1769474554E-02    0.1038106505E-07
   -4   -2    0   10   12    0.1206005803E-02   -0.3530157000E-09
   -4   -2    0   11   12    0.2605213236E-03   -0.5892378078E-07
   -4   -2    0   12   12    0.2790540051E-02    0.1847438036E-09
   -4   -2    0   13   12   -0.1215562802E-02    0.1621460431E-09
   -4   -2    0    1   13   -0.9969273658E-03    0.9163582101E-07
   -4   -2    0    2   13    0.2686981484E-02    0.7285707596E-07
   -4   -2    0    3   13    0.7036012635E-03   -0.6058016248E-07
   -4   -2    0    4   13    0.1732373420E-03    0.5337995582E-07
   -4   -2    0    5   13    0.5845267782E-03    0.8592383313E-07
   -4   -2    0    6   13   -0.1783553393E-02   -0.9994890534E-08
   -4   -2    0    7   13   -0.9994216215E-03   -0.1538101249E-05
   -4   -2    0    8   13    0.1781269304E-02   -0.1668552459E-07
   -4   -2    0    9   13   -0.2389489083E-02    0.7518733864E-08
   -4   -2    0   10   13    0.1209905440E-02    0.7123863305E-10
   -4   -2    0   11   13    0.2814160540E-03   -0.5992977245E-07
   -4   -2    0   12   13   -0.1200654956E-02   -0.6962678836E-09
   -4   -2    0   13   13    0.2790830716E-02   -0.6023830248E-10
   -3   -3    0    1    1   -0.1941695222E-02   -0.4519923399E-16
   -3   -3    0    2    1   -0.2691919733E-08    0.5268368248E-11
   -3   -3    0    3    1    0.1138041575E-07    0.6934839167E-11
   -3   -3    0    4    1   -0.1786606923E-01    0.2489165766E-09
   -3   -3    0    5    1    0.1592792019E-02   -0.5351567644E-09
   -3   -3    0    6    1   -0.3475437397E-02    0.6291444721E-08
   -3   -3    0    7    1   -0.1474817817E-02    0.2417012916E-08
   -3   -3    0    8    1   -0.1630368106E-02    0.3997041429E-08
   -3   -3    0    9    1   -0.1834375795E-02   -0.3426000031E-08
   -3   -3    0   10    1   -0.3475344703E-02    0.6285957933E-08
   -3   -3    0   11    1    0.1474776056E-02   -0.2408794601E-08
   -3   -3    0   12    1   -0.1630301841E-02    0.3999440728E-08
   -3   -3    0   13    1   -0.1834439969E-02   -0.3422505900E-08
   -3   -3    0    1    2   -0.2691920147E-08   -0.5268367253E-11
   -3   -3    0    2    2    0.1403679785E-02    0.1825001650E-14
   -3   -3    0    3    2    0.5891557778E-02   -0.1213043830E-07
   -3   -3    0    4    2   -0.1774374649E-07   -0.4415847093E-11
   -3   -3    0    5    2    0.6095567965E-08   -0.1711355607E-11
   -3   -3    0    6    2   -0.3011600142E-02    0.9204069694E-08
   -3   -3    0    7    2    0.6248951456E-03    0.3815346622E-08
   -3   -3    0    8    2   -0.3634426788E-02    0.6402585323E-08
   -3   -3    0    9    2    0.1993729938E-03    0.4421741660E-08
   -3   -3    0   10    2    0.3011494607E-02   -0.9193818352E-08
   -3   -3    0   11    2    0.6249554182E-03    0.3805435883E-08
   -3   -3    0   12    2    0.3634307472E-02   -0.6407564999E-08
   -3   -3    0   13    2   -0.1993184222E-03   -0.4414361416E-08
   -3   -3    0    1    3    0.1138042070E-07   -0.6934840501E-11
   -3   -3    0    2    3    0.5891556822E-02    0.1213043807E-07
   -3   -3    0    3    3    0.8137778810E-02   -0.1699932837E-14
   -3   -3    0    4    3    0.4405109610E-08    0.4113605791E-11
   -3   -3    0    5    3   -0.8313967870E-08   -0.8877720550E-11
   -3   -3    0    6    3   -0.1490839675E-02    0.3963055080E-08
   -3   -3    0    7    3   -0.3415122566E-03   -0.3653391721E-08
   -3   -3    0    8    3    0.2102384969E-02    0.2334370055E-08
   -3   -3    0    9    3   -0.3353298862E-02    0.7606719761E-08
   -3   -3    0   10    3    0.1490848140E-02   -0.3979232721E-08
   -3   -3    0   11    3   -0.3415510096E-03   -0.3627071254E-08
   -3   -3    0   12    3   -0.2102318732E-02   -0.2315511873E-08
   -3   -3    0   13    3    0.3353203802E-02   -0.7634021477E-08
   -3   -3    0    1    4   -0.1786606931E-01   -0.2489169513E-09
   -3   -3    0    2    4   -0.1774375116E-07    0.4415846011E-11
   -3   -3    0    3    4    0.4405105527E-08   -0.4113606383E-11
   -3   -3    0    4    4   -0.2442061785E-01   -0.1180484859E-15
   -3   -3    0    5    4    0.1105839593E-01   -0.7905169245E-09
   -3   -3    0    6    4    0.1427614594E-03    0.9777647031E-08
   -3   -3    0    7    4   -0.2275689945E-02   -0.1047417483E-08
   -3   -3    0    8    4   -0.3270382070E-02    0.8055091382E-08
   -3   -3    0    9    4    0.3444554482E-02   -0.1106716376E-07
   -3   -3    0   10    4    0.1429126280E-03    0.9780219631E-08
   -3   -3    0   11    4    0.2275705895E-02    0.1047087035E-08
   -3   -3    0   12    4   -0.3270267530E-02    0.8062888164E-08
   -3   -3    0   13    4    0.3444385831E-02   -0.1106924492E-07
   -3   -3    0    1    5    0.1592791349E-02    0.5351568997E-09
   -3   -3    0    2    5    0.6095566859E-08    0.1711357538E-11
   -3   -3    0    3    5   -0.8313967574E-08    0.8877721330E-11
   -3   -3    0    4    5    0.1105839636E-01    0.7905173096E-09
   -3   -3    0    5    5   -0.4210849854E-02   -0.5949925656E-16
   -3   -3    0    6    5    0.1795710169E-02   -0.6759858096E-08
   -3   -3    0    7    5    0.1766685675E-03    0.7674612033E-08
   -3   -3    0    8    5    0.1468770495E-02   -0.3550220306E-08
   -3   -3    0    9    5    0.4410465689E-03    0.9029288863E-08
   -3   -3    0   10    5    0.1795627419E-02   -0.6769808847E-08
   -3   -3    0   11    5   -0.1767930691E-03   -0.7680840016E-08
   -3   -3    0   12    5    0.1468736549E-02   -0.3552755176E-08
   -3   -3    0   13    5    0.4411314832E-03    0.9026254974E-08
   -3   -3    0    1    6   -0.3475437653E-02   -0.6291446449E-08
   -3   -3    0    2    6   -0.3011598994E-02   -0.9204068438E-08
   -3   -3    0    3    6   -0.1490839258E-02   -0.3963054057E-08
   -3   -3    0    4    6    0.1427609434E-03   -0.9777647301E-08
   -3   -3    0    5    6    0.1795709652E-02    0.6759856783E-08
   -3   -3    0    6    6    0.1359450888E-01   -0.3797412666E-14
   -3   -3    0    7    6    0.3479506892E-03   -0.1295235814E-08
   -3   -3    0    8    6   -0.1428331111E-02   -0.3684596482E-08
   -3   -3    0    9    6    0.1640614760E-01   -0.1574803135E-10
   -3   -3    0   10    6   -0.2723804620E-04   -0.5601676264E-11
   -3   -3    0   11    6    0.9023501188E-04    0.3159892448E-08
   -3   -3    0   12    6    0.5337200878E-03    0.9172847007E-08
   -3   -3    0   13    6   -0.6021288725E-03    0.4073181701E-10
   -3   -3    0    1    7   -0.1474817272E-02   -0.2417011806E-08
   -3   -3    0    2    7    0.6248955446E-03   -0.3815344651E-08
   -3   -3    0    3    7   -0.3415115678E-03    0.3653391180E-08
   -3   -3    0    4    7   -0.2275690323E-02    0.1047416933E-08
   -3   -3    0    5    7    0.1766683243E-03   -0.7674613049E-08
   -3   -3    0    6    7    0.3479508682E-03    0.1295236435E-08
   -3   -3    0    7    7    0.4985601006E-02   -0.1642757363E-14
   -3   -3    0    8    7   -0.4916104422E-02    0.1629880209E-08
   -3   -3    0    9    7   -0.3417890273E-03   -0.1434842793E-08
   -3   -3    0   10    7   -0.9026902432E-04    0.3156286577E-08
   -3   -3    0   11    7   -0.1749927236E-02   -0.1367656446E-10
   -3   -3    0   12    7   -0.1733685240E-02   -0.7649613948E-09
   -3   -3    0   13    7    0.1154629144E-03   -0.5979943609E-08
   -3   -3    0    1    8   -0.1630368178E-02   -0.3997038656E-08
   -3   -3    0    2    8   -0.3634426575E-02   -0.6402582992E-08
   -3   -3    0    3    8    0.2102385337E-02   -0.2334369014E-08
   -3   -3    0    4    8   -0.3270382018E-02   -0.8055092759E-08
   -3   -3    0    5    8    0.1468770518E-02    0.3550219578E-08
   -3   -3    0    6    8   -0.1428331254E-02    0.3684599906E-08
   -3   -3    0    7    8   -0.4916104428E-02   -0.1629881753E-08
   -3   -3    0    8    8    0.1366622950E-03   -0.1461323915E-14
   -3   -3    0    9    8    0.1489059258E-02   -0.3074782675E-08
   -3   -3    0   10    8    0.5335869920E-03   -0.9182694298E-08
   -3   -3    0   11    8    0.1733764225E-02   -0.7576508198E-09
   -3   -3    0   12    8    0.1959998484E-02    0.2792867786E-11
   -3   -3    0   13    8   -0.5439861912E-03    0.6374743394E-08
   -3   -3    0    1    9   -0.1834376438E-02    0.3425999680E-08
   -3   -3    0    2    9    0.1993732054E-03   -0.4421743319E-08
   -3   -3    0    3    9   -0.3353300071E-02   -0.7606720122E-08
   -3   -3    0    4    9    0.3444554234E-02    0.1106716216E-07
   -3   -3    0    5    9    0.4410462207E-03   -0.9029291119E-08
   -3   -3    0    6    9    0.1640614806E-01    0.1574959260E-10
   -3   -3    0    7    9   -0.3417891826E-03    0.1434840163E-08
   -3   -3    0    8    9    0.1489059397E-02    0.3074783733E-08
   -3   -3    0    9    9    0.1354654376E-01    0.1221103949E-14
   -3   -3    0   10    9   -0.6021299407E-03   -0.4567938801E-10
   -3   -3    0   11    9   -0.1154395731E-03   -0.5969019016E-08
   -3   -3    0   12    9   -0.5441093720E-03   -0.6380878012E-08
   -3   -3    0   13    9   -0.1914735117E-05    0.2171734184E-11
   -3   -3    0    1   10   -0.3475344959E-02   -0.6285959661E-08
   -3   -3    0    2   10    0.3011493458E-02    0.9193817103E-08
   -3   -3    0    3   10    0.1490847722E-02    0.3979231725E-08
   -3   -3    0    4   10    0.1429121120E-03   -0.9780219908E-08
   -3   -3    0    5   10    0.1795626902E-02    0.6769807543E-08
   -3   -3    0    6   10   -0.2723804645E-04    0.5633160298E-11
   -3   -3    0    7   10   -0.9026954384E-04   -0.3156273564E-08
   -3   -3    0    8   10    0.5335868290E-03    0.9182681716E-08
   -3   -3    0    9   10   -0.6021291688E-03    0.4567883485E-10
   -3   -3    0   10   10    0.1359456143E-01   -0.3805059101E-14
   -3   -3    0   11   10   -0.3479581026E-03    0.1295337348E-08
   -3   -3    0   12   10   -0.1428296019E-02   -0.3691331379E-08
   -3   -3    0   13   10    0.1640608191E-01   -0.3664153703E-10
   -3   -3    0    1   11    0.1474775512E-02    0.2408793477E-08
   -3   -3    0    2   11    0.6249558172E-03   -0.3805433899E-08
   -3   -3    0    3   11   -0.3415503207E-03    0.3627070734E-08
   -3   -3    0    4   11    0.2275706272E-02   -0.1047086487E-08
   -3   -3    0    5   11   -0.1767928259E-03    0.7680841033E-08
   -3   -3    0    6   11    0.9023449254E-04   -0.3159905461E-08
   -3   -3    0    7   11   -0.1749927236E-02    0.1367761056E-10
   -3   -3    0    8   11    0.1733764216E-02    0.7576511828E-09
   -3   -3    0    9   11   -0.1154400705E-03    0.5969005305E-08
   -3   -3    0   10   11   -0.3479582816E-03   -0.1295337965E-08
   -3   -3    0   11   11    0.4985564216E-02   -0.1633632241E-14
   -3   -3    0   12   11    0.4916051109E-02   -0.1630132951E-08
   -3   -3    0   13   11    0.3417979785E-03    0.1426057800E-08
   -3   -3    0    1   12   -0.1630301913E-02   -0.3999437950E-08
   -3   -3    0    2   12    0.3634307260E-02    0.6407562675E-08
   -3   -3    0    3   12   -0.2102319101E-02    0.2315510832E-08
   -3   -3    0    4   12   -0.3270267478E-02   -0.8062889546E-08
   -3   -3    0    5   12    0.1468736571E-02    0.3552754434E-08
   -3   -3    0    6   12    0.5337202511E-03   -0.9172859590E-08
   -3   -3    0    7   12   -0.1733685249E-02    0.7649610324E-09
   -3   -3    0    8   12    0.1959998484E-02   -0.2794169955E-11
   -3   -3    0    9   12   -0.5441092051E-03    0.6380864993E-08
   -3   -3    0   10   12   -0.1428296161E-02    0.3691334814E-08
   -3   -3    0   11   12    0.4916051115E-02    0.1630134491E-08
   -3   -3    0   12   12    0.1366601789E-03   -0.1458494718E-14
   -3   -3    0   13   12    0.1489022931E-02   -0.3069670067E-08
   -3   -3    0    1   13   -0.1834440612E-02    0.3422505557E-08
   -3   -3    0    2   13   -0.1993186338E-03    0.4414363082E-08
   -3   -3    0    3   13    0.3353205011E-02    0.7634021845E-08
   -3   -3    0    4   13    0.3444385583E-02    0.1106924332E-07
   -3   -3    0    5   13    0.4411311349E-03   -0.9026257237E-08
   -3   -3    0    6   13   -0.6021296444E-03   -0.4073236995E-10
   -3   -3    0    7   13    0.1154624168E-03    0.5979957320E-08
   -3   -3    0    8   13   -0.5439863578E-03   -0.6374756414E-08
   -3   -3    0    9   13   -0.1914734866E-05   -0.2202405521E-11
   -3   -3    0   10   13    0.1640608237E-01    0.3664309481E-10
   -3   -3    0   11   13    0.3417981338E-03   -0.1426055163E-08
   -3   -3    0   12   13    0.1489023070E-02    0.3069671125E-08
   -3   -3    0   13   13    0.1354659553E-01    0.1203910252E-14
   -3   -2    0    1    1   -0.3708520186E-02    0.4577556389E-10
   -3   -2    0    2    1    0.2700136590E-07   -0.4647436070E-11
   -3   -2    0    3    1   -0.8198457834E-08    0.5090477192E-11
   -3   -2    0    4    1   -0.3747315737E-02   -0.2190452191E-08
   -3   -2    0    5    1    0.2064105851E-02   -0.1179317618E-08
   -3   -2    0    6    1   -0.4227329366E-02    0.1199762947E-06
   -3   -2    0    7    1   -0.3232214274E-02    0.2664959101E-07
   -3   -2    0    8    1   -0.5292317985E-03   -0.9296403372E-07
   -3   -2    0    9    1    0.6023411995E-03   -0.1169908436E-06
   -3   -2    0   10    1   -0.4225533865E-02    0.1199715030E-06
   -3   -2    0   11    1    0.3231813290E-02   -0.2664416092E-07
   -3   -2    0   12    1   -0.5306724951E-03   -0.9295903961E-07
   -3   -2    0   13    1    0.6006257531E-03   -0.1169820370E-06
   -3   -2    0    1    2   -0.1227577313E-07    0.9051180958E-11
   -3   -2    0    2    2    0.3370422380E-02    0.1382275017E-07
   -3   -2    0    3    2    0.2019901335E-02    0.1573979079E-07
   -3   -2    0    4    2    0.4472090781E-08    0.6582227752E-11
   -3   -2    0    5    2   -0.2788387231E-07   -0.5829527126E-12
   -3   -2    0    6    2    0.1639095873E-02    0.1210489252E-06
   -3   -2    0    7    2   -0.1754352780E-03   -0.1384830838E-07
   -3   -2    0    8    2    0.2125780609E-02   -0.9039825127E-07
   -3   -2    0    9    2    0.5699503031E-03   -0.9479013624E-07
   -3   -2    0   10    2   -0.1641034387E-02   -0.1210270169E-06
   -3   -2    0   11    2   -0.1756103539E-03   -0.1386162976E-07
   -3   -2    0   12    2   -0.2124336679E-02    0.9041145234E-07
   -3   -2    0   13    2   -0.5687282228E-03    0.9479026073E-07
   -3   -2    0    1    3    0.3298448537E-08   -0.1621290619E-10
   -3   -2    0    2    3   -0.4526648432E-02   -0.1212835497E-07
   -3   -2    0    3    3   -0.3954306240E-02   -0.1290340722E-07
   -3   -2    0    4    3   -0.1178204195E-08    0.4166666086E-11
   -3   -2    0    5    3   -0.1015262630E-07    0.2051494140E-11
   -3   -2    0    6    3    0.9224463008E-03    0.6778768781E-07
   -3   -2    0    7    3   -0.1555017016E-03   -0.7847459509E-08
   -3   -2    0    8    3   -0.6100229969E-03   -0.2347650219E-07
   -3   -2    0    9    3    0.2113553553E-02   -0.8021117467E-07
   -3   -2    0   10    3   -0.9235609496E-03   -0.6777208450E-07
   -3   -2    0   11    3   -0.1556020548E-03   -0.7853556003E-08
   -3   -2    0   12    3    0.6104454305E-03    0.2348546383E-07
   -3   -2    0   13    3   -0.2112471571E-02    0.8020173226E-07
   -3   -2    0    1    4    0.1111972730E-02    0.2348451076E-08
   -3   -2    0    2    4    0.9530433975E-08   -0.9533080004E-11
   -3   -2    0    3    4   -0.8879453354E-08    0.5846153056E-11
   -3   -2    0    4    4    0.2800425946E-02    0.1865519078E-09
   -3   -2    0    5    4   -0.1339873064E-02    0.1363373119E-08
   -3   -2    0    6    4    0.2535727422E-03    0.8771431581E-07
   -3   -2    0    7    4    0.1069672305E-03    0.1096480412E-07
   -3   -2    0    8    4    0.1498335021E-02   -0.8940182964E-07
   -3   -2    0    9    4   -0.1004461998E-02   -0.5990004954E-07
   -3   -2    0   10    4    0.2549332179E-03    0.8772682430E-07
   -3   -2    0   11    4   -0.1071173150E-03   -0.1097223957E-07
   -3   -2    0   12    4    0.1496985234E-02   -0.8939407682E-07
   -3   -2    0   13    4   -0.1005299773E-02   -0.5990229548E-07
   -3   -2    0    1    5    0.2839177794E-02   -0.5162180518E-09
   -3   -2    0    2    5   -0.3784297385E-08   -0.2356222532E-11
   -3   -2    0    3    5    0.9475640642E-08   -0.2779049385E-11
   -3   -2    0    4    5    0.2541339879E-02   -0.1740205535E-08
   -3   -2    0    5    5   -0.3666008608E-03   -0.9536999766E-09
   -3   -2    0    6    5    0.3165875299E-02    0.6516339738E-07
   -3   -2    0    7    5    0.2505633492E-02   -0.1412321184E-08
   -3   -2    0    8    5   -0.3085391364E-03   -0.2707994280E-07
   -3   -2    0    9    5    0.1292714454E-02   -0.6870426225E-07
   -3   -2    0   10    5    0.3166866515E-02    0.6516124720E-07
   -3   -2    0   11    5   -0.2505592289E-02    0.1417318166E-08
   -3   -2    0   12    5   -0.3090094369E-03   -0.2708117060E-07
   -3   -2    0   13    5    0.1291792382E-02   -0.6871776657E-07
   -3   -2    0    1    6    0.1537075712E-02    0.4848444809E-08
   -3   -2    0    2    6    0.1576085924E-01    0.5000250498E-08
   -3   -2    0    3    6    0.7472534367E-02    0.2409308374E-07
   -3   -2    0    4    6   -0.5924279195E-02    0.2456725608E-08
   -3   -2    0    5    6   -0.2383565759E-02    0.3242028420E-08
   -3   -2    0    6    6    0.5575041532E-03    0.1842817199E-07
   -3   -2    0    7    6    0.1794400517E-03    0.1662842225E-09
   -3   -2    0    8    6    0.4990419329E-02    0.8358767845E-10
   -3   -2    0    9    6   -0.3615946585E-02   -0.2207660721E-08
   -3   -2    0   10    6    0.6947914966E-03   -0.1088905592E-06
   -3   -2    0   11    6   -0.1464418561E-03    0.2537626384E-07
   -3   -2    0   12    6   -0.5296991485E-02    0.4434182882E-10
   -3   -2    0   13    6    0.5580378986E-02    0.2616299464E-07
   -3   -2    0    1    7    0.3044555261E-03   -0.4415314364E-09
   -3   -2    0    2    7    0.4684156986E-03    0.9834008243E-08
   -3   -2    0    3    7    0.2889836946E-02   -0.3027673168E-08
   -3   -2    0    4    7   -0.9601831167E-02   -0.1221841843E-08
   -3   -2    0    5    7    0.4897875773E-02    0.3177118481E-08
   -3   -2    0    6    7   -0.3098615592E-02    0.4903026367E-08
   -3   -2    0    7    7   -0.3304565382E-02   -0.1135757877E-09
   -3   -2    0    8    7    0.7189395578E-03   -0.9501873455E-09
   -3   -2    0    9    7   -0.1149772328E-02   -0.2324913456E-09
   -3   -2    0   10    7   -0.4322746642E-02   -0.5360663997E-07
   -3   -2    0   11    7    0.3136296545E-02    0.2756041992E-09
   -3   -2    0   12    7   -0.1190934606E-02   -0.3268275123E-07
   -3   -2    0   13    7   -0.2382347746E-03    0.6850686119E-07
   -3   -2    0    1    8    0.1048049152E-02   -0.3771286915E-08
   -3   -2    0    2    8    0.1912310811E-02    0.1161027961E-07
   -3   -2    0    3    8   -0.1677335817E-02    0.5344688013E-08
   -3   -2    0    4    8    0.7266041942E-02   -0.4760570167E-08
   -3   -2    0    5    8   -0.1027016703E-02    0.2281682395E-10
   -3   -2    0    6    8    0.1860075342E-02    0.2847821978E-10
   -3   -2    0    7    8   -0.2979340731E-03    0.5082372481E-08
   -3   -2    0    8    8    0.2169414543E-02   -0.1795151429E-07
   -3   -2    0    9    8    0.1320300206E-02   -0.1550046597E-07
   -3   -2    0   10    8    0.1188982114E-04   -0.1020045393E-08
   -3   -2    0   11    8   -0.1466121898E-02    0.5396141330E-07
   -3   -2    0   12    8   -0.1642029815E-02    0.1085896495E-06
   -3   -2    0   13    8    0.1006554146E-03    0.9926100896E-07
   -3   -2    0    1    9    0.3759432579E-03   -0.5393451678E-08
   -3   -2    0    2    9    0.4895411215E-02    0.2162702535E-07
   -3   -2    0    3    9    0.5769158641E-02    0.1375494339E-07
   -3   -2    0    4    9   -0.5157830480E-02   -0.4100240449E-08
   -3   -2    0    5    9   -0.4491630280E-02    0.2759994762E-08
   -3   -2    0    6    9   -0.1070732252E-03   -0.1513912149E-07
   -3   -2    0    7    9    0.1684678811E-02    0.1403929452E-08
   -3   -2    0    8    9   -0.2248977533E-03   -0.2301723243E-08
   -3   -2    0    9    9   -0.2866542743E-02   -0.4619465227E-09
   -3   -2    0   10    9    0.3869152239E-02    0.7862747204E-07
   -3   -2    0   11    9   -0.1065510788E-02    0.5804422708E-07
   -3   -2    0   12    9   -0.4211866321E-03    0.1182163606E-07
   -3   -2    0   13    9    0.3405349387E-02    0.1384263495E-08
   -3   -2    0    1   10    0.1537005261E-02    0.4873303504E-08
   -3   -2    0    2   10   -0.1576099663E-01   -0.5010479490E-08
   -3   -2    0    3   10   -0.7472615164E-02   -0.2409319234E-07
   -3   -2    0    4   10   -0.5924313902E-02    0.2446496821E-08
   -3   -2    0    5   10   -0.2383616236E-02    0.3244517321E-08
   -3   -2    0    6   10    0.6965387908E-03   -0.1088896924E-06
   -3   -2    0    7   10    0.1468526601E-03   -0.2536715265E-07
   -3   -2    0    8   10   -0.5296997765E-02    0.4769814665E-10
   -3   -2    0    9   10    0.5580039520E-02    0.2615116145E-07
   -3   -2    0   10   10    0.5573145647E-03    0.1841665438E-07
   -3   -2    0   11   10   -0.1795482192E-03   -0.1669861055E-09
   -3   -2    0   12   10    0.4990257814E-02    0.7303724292E-10
   -3   -2    0   13   10   -0.3616036894E-02   -0.2208958461E-08
   -3   -2    0    1   11   -0.3044666602E-03    0.4462806756E-09
   -3   -2    0    2   11    0.4683552267E-03    0.9850422065E-08
   -3   -2    0    3   11    0.2889903217E-02   -0.3004314013E-08
   -3   -2    0    4   11    0.9601803796E-02    0.1238493337E-08
   -3   -2    0    5   11   -0.4897830603E-02   -0.3175278891E-08
   -3   -2    0    6   11    0.4321959332E-02    0.5359096243E-07
   -3   -2    0    7   11    0.3136286438E-02    0.2618420619E-09
   -3   -2    0    8   11    0.1190472997E-02    0.3269992608E-07
   -3   -2    0    9   11    0.2391587807E-03   -0.6853284769E-07
   -3   -2    0   10   11    0.3098614478E-02   -0.4904950467E-08
   -3   -2    0   11   11   -0.3304501432E-02   -0.1171622244E-09
   -3   -2    0   12   11   -0.7188039784E-03    0.9577953569E-09
   -3   -2    0   13   11    0.1149772573E-02    0.2227050350E-09
   -3   -2    0    1   12    0.1048108496E-02   -0.3746307358E-08
   -3   -2    0    2   12   -0.1912098226E-02   -0.1161343836E-07
   -3   -2    0    3   12    0.1677350463E-02   -0.5340180392E-08
   -3   -2    0    4   12    0.7266092279E-02   -0.4763555266E-08
   -3   -2    0    5   12   -0.1027024970E-02    0.1784623664E-10
   -3   -2    0    6   12    0.1194098029E-04   -0.1025086055E-08
   -3   -2    0    7   12    0.1466872395E-02   -0.5397403045E-07
   -3   -2    0    8   12   -0.1643788964E-02    0.1085945588E-06
   -3   -2    0    9   12    0.9928565963E-04    0.9924235147E-07
   -3   -2    0   10   12    0.1860504526E-02    0.2224966739E-10
   -3   -2    0   11   12    0.2979326629E-03   -0.5084430654E-08
   -3   -2    0   12   12    0.2169219859E-02   -0.1795406292E-07
   -3   -2    0   13   12    0.1320184316E-02   -0.1550293995E-07
   -3   -2    0    1   13    0.3760187794E-03   -0.5386254793E-08
   -3   -2    0    2   13   -0.4895249621E-02   -0.2161098353E-07
   -3   -2    0    3   13   -0.5769088944E-02   -0.1375907914E-07
   -3   -2    0    4   13   -0.5157784800E-02   -0.4111544889E-08
   -3   -2    0    5   13   -0.4491671836E-02    0.2767424746E-08
   -3   -2    0    6   13    0.3867909570E-02    0.7864370563E-07
   -3   -2    0    7   13    0.1066401346E-02   -0.5802159877E-07
   -3   -2    0    8   13   -0.4214384086E-03    0.1182840299E-07
   -3   -2    0    9   13    0.3405345856E-02    0.1389827572E-08
   -3   -2    0   10   13   -0.1069395386E-03   -0.1513889101E-07
   -3   -2    0   11   13   -0.1684652522E-02   -0.1408308685E-08
   -3   -2    0   12   13   -0.2248021012E-03   -0.2322590689E-08
   -3   -2    0   13   13   -0.2866545992E-02   -0.4443204416E-09
   -3   -1    0    1    1   -0.4521911261E-02    0.2266279178E-09
   -3   -1    0    2    1    0.3301056997E-08    0.6148527834E-11
   -3   -1    0    3    1    0.3158027064E-07    0.1018499251E-10
   -3   -1    0    4    1   -0.2382833178E-03    0.9482711422E-09
   -3   -1    0    5    1    0.1583501221E-03   -0.1689519928E-08
   -3   -1    0    6    1   -0.3257924566E-02    0.1332468133E-07
   -3   -1    0    7    1   -0.2479447227E-02   -0.3202681037E-09
   -3   -1    0    8    1    0.2568609974E-03   -0.1060008221E-07
   -3   -1    0    9    1   -0.3492138833E-02    0.4326343936E-08
   -3   -1    0   10    1   -0.3257739870E-02    0.1333133117E-07
   -3   -1    0   11    1    0.2479461362E-02    0.3148408409E-09
   -3   -1    0   12    1    0.2566982924E-03   -0.1058575238E-07
   -3   -1    0   13    1   -0.3492036431E-02    0.4311930486E-08
   -3   -1    0    1    2    0.5016294902E-08   -0.1026316131E-10
   -3   -1    0    2    2   -0.3237502523E-02   -0.1105406179E-07
   -3   -1    0    3    2   -0.7081564971E-03   -0.9343346074E-08
   -3   -1    0    4    2   -0.2382376315E-07    0.1111555567E-10
   -3   -1    0    5    2   -0.7813848940E-08    0.1376410581E-11
   -3   -1    0    6    2   -0.2782753756E-02    0.2728656107E-08
   -3   -1    0    7    2    0.1421707392E-04   -0.1200698331E-08
   -3   -1    0    8    2   -0.2788671830E-02    0.2953654328E-08
   -3   -1    0    9    2   -0.1218210958E-05    0.9080484660E-08
   -3   -1    0   10    2    0.2782721782E-02   -0.2714052844E-08
   -3   -1    0   11    2    0.1421852084E-04   -0.1213100339E-08
   -3   -1    0   12    2    0.2788612219E-02   -0.2952265765E-08
   -3   -1    0   13    2    0.1215335315E-05   -0.9077503223E-08
   -3   -1    0    1    3   -0.1708611438E-08    0.1482378354E-10
   -3   -1    0    2    3    0.5810621003E-02    0.1180440022E-07
   -3   -1    0    3    3    0.2643393204E-02    0.1306922308E-07
   -3   -1    0    4    3   -0.2372429838E-07   -0.9993668221E-12
   -3   -1    0    5    3   -0.4215674579E-09   -0.1039510003E-10
   -3   -1    0    6    3   -0.1860392799E-02    0.1393383087E-07
   -3   -1    0    7    3    0.7905245411E-03    0.4323820212E-08
   -3   -1    0    8    3    0.1857296048E-02   -0.1708967219E-08
   -3   -1    0    9    3   -0.4205971958E-02    0.7374552963E-08
   -3   -1    0   10    3    0.1860282630E-02   -0.1393773462E-07
   -3   -1    0   11    3    0.7905948944E-03    0.4316328628E-08
   -3   -1    0   12    3   -0.1857189416E-02    0.1691294511E-08
   -3   -1    0   13    3    0.4205857100E-02   -0.7374766842E-08
   -3   -1    0    1    4   -0.6063453035E-03   -0.1117521138E-08
   -3   -1    0    2    4    0.9467675071E-08    0.7362802610E-11
   -3   -1    0    3    4    0.4583221825E-08   -0.2916589652E-11
   -3   -1    0    4    4    0.1274312655E-02   -0.8994892877E-09
   -3   -1    0    5    4    0.5854498563E-04   -0.2543806922E-08
   -3   -1    0    6    4   -0.3160283298E-03    0.1162960596E-09
   -3   -1    0    7    4   -0.1207139065E-03    0.8258098014E-08
   -3   -1    0    8    4   -0.1356083438E-02    0.2251665826E-08
   -3   -1    0    9    4    0.1137572364E-02   -0.7641705671E-09
   -3   -1    0   10    4   -0.3160586222E-03    0.1162579477E-09
   -3   -1    0   11    4    0.1205829725E-03   -0.8259968308E-08
   -3   -1    0   12    4   -0.1356038320E-02    0.2249069229E-08
   -3   -1    0   13    4    0.1137560078E-02   -0.7491105028E-09
   -3   -1    0    1    5    0.5983971757E-02    0.1010380083E-08
   -3   -1    0    2    5   -0.1831764810E-08   -0.1657954250E-10
   -3   -1    0    3    5   -0.2067909917E-08    0.9032727509E-11
   -3   -1    0    4    5   -0.7827861376E-03    0.2323435187E-08
   -3   -1    0    5    5    0.1727953164E-02   -0.2188700610E-09
   -3   -1    0    6    5    0.2169497022E-02    0.4050303187E-08
   -3   -1    0    7    5   -0.1263188368E-02    0.2725590146E-08
   -3   -1    0    8    5    0.3697267706E-02   -0.4590706261E-08
   -3   -1    0    9    5   -0.1488316117E-02    0.4634230212E-08
   -3   -1    0   10    5    0.2169558835E-02    0.4053311423E-08
   -3   -1    0   11    5    0.1263155215E-02   -0.2716672668E-08
   -3   -1    0   12    5    0.3697186640E-02   -0.4591609469E-08
   -3   -1    0   13    5   -0.1488253306E-02    0.4615221003E-08
   -3   -1    0    1    6   -0.8496490521E-03    0.1792525333E-08
   -3   -1    0    2    6   -0.1478277739E-01   -0.2079491220E-07
   -3   -1    0    3    6   -0.8537879323E-02   -0.2967934784E-07
   -3   -1    0    4    6    0.1703329975E-02    0.2801072083E-08
   -3   -1    0    5    6    0.2840740642E-02    0.4936947757E-08
   -3   -1    0    6    6    0.6658837022E-03    0.1788659870E-07
   -3   -1    0    7    6    0.3231224209E-03    0.4580070212E-09
   -3   -1    0    8    6   -0.3555704892E-02   -0.8715582422E-09
   -3   -1    0    9    6    0.5038501991E-02   -0.4717629863E-09
   -3   -1    0   10    6    0.6654256957E-03   -0.1090326729E-06
   -3   -1    0   11    6   -0.1821256842E-03    0.1487467242E-07
   -3   -1    0   12    6    0.5616914017E-02    0.1582161830E-07
   -3   -1    0   13    6   -0.5333960182E-02   -0.1354486358E-08
   -3   -1    0    1    7   -0.1287245430E-01   -0.7050168329E-08
   -3   -1    0    2    7   -0.4845158852E-02   -0.5245107137E-08
   -3   -1    0    3    7   -0.2839729345E-02   -0.8144943886E-08
   -3   -1    0    4    7   -0.6408319171E-02   -0.2226596683E-08
   -3   -1    0    5    7   -0.1270891112E-02    0.9103039052E-09
   -3   -1    0    6    7   -0.3149338296E-02    0.6944467612E-08
   -3   -1    0    7    7   -0.3241989547E-02   -0.4120304375E-09
   -3   -1    0    8    7   -0.1156142745E-02   -0.1427005639E-08
   -3   -1    0    9    7    0.8014654656E-03   -0.4253411928E-09
   -3   -1    0   10    7   -0.4275145627E-02   -0.7839309074E-07
   -3   -1    0   11    7    0.2949505482E-02   -0.1845849515E-09
   -3   -1    0   12    7   -0.2849096938E-03    0.7020385873E-07
   -3   -1    0   13    7   -0.1053494151E-02   -0.1560612479E-07
   -3   -1    0    1    8    0.3149813618E-02   -0.4123715230E-08
   -3   -1    0    2    8   -0.2490277880E-02   -0.1318759816E-07
   -3   -1    0    3    8   -0.1739842795E-02   -0.8276130996E-08
   -3   -1    0    4    8    0.3423130791E-02    0.5253924004E-08
   -3   -1    0    5    8    0.1314970749E-02    0.1523137847E-07
   -3   -1    0    6    8   -0.1698569196E-04   -0.1462065016E-07
   -3   -1    0    7    8    0.1763494143E-02    0.1468844005E-08
   -3   -1    0    8    8   -0.2849198162E-02   -0.4023442968E-09
   -3   -1    0    9    8   -0.1860844332E-03   -0.9222790864E-09
   -3   -1    0   10    8    0.3872498281E-02    0.7372478767E-07
   -3   -1    0   11    8   -0.1145510900E-02    0.8093334010E-07
   -3   -1    0   12    8    0.3423036453E-02   -0.9996604737E-08
   -3   -1    0   13    8   -0.4459508112E-03    0.7934292934E-08
   -3   -1    0    1    9    0.3932052951E-02   -0.4177756759E-08
   -3   -1    0    2    9   -0.2722101406E-02   -0.8452111160E-08
   -3   -1    0    3    9   -0.1287835302E-02   -0.1217763545E-07
   -3   -1    0    4    9    0.1929725736E-02    0.7518287305E-08
   -3   -1    0    5    9    0.2008594412E-02    0.1123920276E-07
   -3   -1    0    6    9    0.1844450645E-02    0.8193120696E-09
   -3   -1    0    7    9   -0.3799352406E-03    0.5742319606E-08
   -3   -1    0    8    9    0.1389354502E-02   -0.1410520059E-07
   -3   -1    0    9    9    0.2108707379E-02   -0.1765747183E-07
   -3   -1    0   10    9   -0.2082291924E-04   -0.1213003806E-07
   -3   -1    0   11    9   -0.1367385072E-02    0.6826538750E-07
   -3   -1    0   12    9    0.1319498931E-03    0.7207654665E-07
   -3   -1    0   13    9   -0.1699769730E-02    0.1203022590E-06
   -3   -1    0    1   10   -0.8496598484E-03    0.1796550717E-08
   -3   -1    0    2   10    0.1478270588E-01    0.2076144203E-07
   -3   -1    0    3   10    0.8537840202E-02    0.2967425578E-07
   -3   -1    0    4   10    0.1703261295E-02    0.2798090137E-08
   -3   -1    0    5   10    0.2840639797E-02    0.4944040365E-08
   -3   -1    0    6   10    0.6671768065E-03   -0.1090352167E-06
   -3   -1    0    7   10    0.1824848189E-03   -0.1489065944E-07
   -3   -1    0    8   10    0.5616630631E-02    0.1581254912E-07
   -3   -1    0    9   10   -0.5333961565E-02   -0.1358552826E-08
   -3   -1    0   10   10    0.6656933661E-03    0.1790284179E-07
   -3   -1    0   11   10   -0.3232286746E-03   -0.4846624976E-09
   -3   -1    0   12   10   -0.3555808446E-02   -0.8554105271E-09
   -3   -1    0   13   10    0.5038357516E-02   -0.4591049277E-09
   -3   -1    0    1   11    0.1287234541E-01    0.7026319087E-08
   -3   -1    0    2   11   -0.4845183502E-02   -0.5252974392E-08
   -3   -1    0    3   11   -0.2839749101E-02   -0.8175712701E-08
   -3   -1    0    4   11    0.6408292703E-02    0.2246972258E-08
   -3   -1    0    5   11    0.1270918984E-02   -0.9004268234E-09
   -3   -1    0    6   11    0.4274244268E-02    0.7840651190E-07
   -3   -1    0    7   11    0.2949496215E-02   -0.1744218867E-09
   -3   -1    0    8   11    0.2858359987E-03   -0.7018342019E-07
   -3   -1    0    9   11    0.1053109726E-02    0.1559941551E-07
   -3   -1    0   10   11    0.3149327363E-02   -0.6930516633E-08
   -3   -1    0   11   11   -0.3241926266E-02   -0.4064790171E-09
   -3   -1    0   12   11    0.1156153209E-02    0.1433437063E-08
   -3   -1    0   13   11   -0.8013321478E-03    0.4264699427E-09
   -3   -1    0    1   12    0.3149879725E-02   -0.4125130498E-08
   -3   -1    0    2   12    0.2490149349E-02    0.1318809155E-07
   -3   -1    0    3   12    0.1739825155E-02    0.8263593351E-08
   -3   -1    0    4   12    0.3423068037E-02    0.5246994998E-08
   -3   -1    0    5   12    0.1314780119E-02    0.1522533155E-07
   -3   -1    0    6   12    0.3871276064E-02    0.7372028905E-07
   -3   -1    0    7   12    0.1146512375E-02   -0.8094194918E-07
   -3   -1    0    8   12    0.3423078954E-02   -0.9998750798E-08
   -3   -1    0    9   12   -0.4461876585E-03    0.7921240375E-08
   -3   -1    0   10   12   -0.1686914412E-04   -0.1461508396E-07
   -3   -1    0   11   12   -0.1763471793E-02   -0.1477105493E-08
   -3   -1    0   12   12   -0.2849206541E-02   -0.3906422269E-09
   -3   -1    0   13   12   -0.1859860685E-03   -0.9086663921E-09
   -3   -1    0    1   13    0.3932128447E-02   -0.4174114131E-08
   -3   -1    0    2   13    0.2722030605E-02    0.8450262087E-08
   -3   -1    0    3   13    0.1287736461E-02    0.1217604686E-07
   -3   -1    0    4   13    0.1929627054E-02    0.7519682238E-08
   -3   -1    0    5   13    0.2008440181E-02    0.1124817114E-07
   -3   -1    0    6   13   -0.2073425911E-04   -0.1211824801E-07
   -3   -1    0    7   13    0.1368203346E-02   -0.6826315415E-07
   -3   -1    0    8   13    0.1307113605E-03    0.7208139251E-07
   -3   -1    0    9   13   -0.1701580797E-02    0.1203091164E-06
   -3   -1    0   10   13    0.1844874701E-02    0.8313073771E-09
   -3   -1    0   11   13    0.3799354435E-03   -0.5738616068E-08
   -3   -1    0   12   13    0.1389238928E-02   -0.1410989299E-07
   -3   -1    0   13   13    0.2108515272E-02   -0.1764386587E-07
   -3    0    0    1    1   -0.2853701874E-01   -0.2516197285E-15
   -3    0    0    2    1    0.4098046202E-08    0.7395866411E-11
   -3    0    0    3    1   -0.2003142838E-07    0.1444533283E-10
   -3    0    0    4    1    0.7881000119E-02   -0.5744848963E-09
   -3    0    0    5    1   -0.1689054531E-01   -0.1528136524E-09
   -3    0    0    6    1   -0.1123673365E-02   -0.3903044365E-08
   -3    0    0    7    1   -0.6469910996E-02    0.2339858755E-08
   -3    0    0    8    1   -0.7886439032E-03    0.6961704649E-08
   -3    0    0    9    1    0.4895029067E-02    0.5499187600E-08
   -3    0    0   10    1   -0.1123733325E-02   -0.3910358344E-08
   -3    0    0   11    1    0.6469870305E-02   -0.2342417184E-08
   -3    0    0   12    1   -0.7885455256E-03    0.6952916715E-08
   -3    0    0   13    1    0.4895108550E-02    0.5491914134E-08
   -3    0    0    1    2    0.4098046250E-08   -0.7395871715E-11
   -3    0    0    2    2    0.1148954316E-01    0.6159677847E-13
   -3    0    0    3    2   -0.2345568933E-04    0.2478954443E-07
   -3    0    0    4    2    0.2688380266E-08    0.7212765144E-11
   -3    0    0    5    2   -0.9683930138E-08   -0.1407548517E-10
   -3    0    0    6    2    0.1433774338E-01   -0.9529363354E-08
   -3    0    0    7    2    0.2692497896E-02    0.3100062873E-08
   -3    0    0    8    2    0.7485771690E-02   -0.1137892077E-07
   -3    0    0    9    2   -0.5092336969E-03   -0.1151471512E-07
   -3    0    0   10    2   -0.1433788384E-01    0.9534780882E-08
   -3    0    0   11    2    0.2692520678E-02    0.3093730147E-08
   -3    0    0   12    2   -0.7485630123E-02    0.1137233959E-07
   -3    0    0   13    2    0.5093460707E-03    0.1151802111E-07
   -3    0    0    1    3   -0.2003142843E-07   -0.1444532793E-10
   -3    0    0    2    3   -0.2348785323E-04   -0.2478954445E-07
   -3    0    0    3    3   -0.2042317591E-02   -0.6156405381E-13
   -3    0    0    4    3    0.7388712940E-08    0.2306361295E-11
   -3    0    0    5    3   -0.8390443890E-08    0.2670400356E-11
   -3    0    0    6    3    0.9940316517E-02   -0.2055409642E-07
   -3    0    0    7    3   -0.1042360302E-02   -0.1138548543E-07
   -3    0    0    8    3    0.1371493565E-02   -0.2165058221E-07
   -3    0    0    9    3    0.2531434865E-02   -0.8434167767E-08
   -3    0    0   10    3   -0.9940402314E-02    0.2058133716E-07
   -3    0    0   11    3   -0.1042447738E-02   -0.1139028959E-07
   -3    0    0   12    3   -0.1371386532E-02    0.2165638871E-07
   -3    0    0   13    3   -0.2531271310E-02    0.8444167879E-08
   -3    0    0    1    4    0.7881016431E-02    0.5744850628E-09
   -3    0    0    2    4    0.2688380104E-08   -0.7212763527E-11
   -3    0    0    3    4    0.7388712979E-08   -0.2306355325E-11
   -3    0    0    4    4   -0.3033162938E-02   -0.9304070849E-16
   -3    0    0    5    4    0.3339458890E-03    0.4166179086E-09
   -3    0    0    6    4    0.1325570208E-03   -0.3947831572E-08
   -3    0    0    7    4    0.6337165219E-02   -0.1961547947E-08
   -3    0    0    8    4   -0.2471568212E-02   -0.4242655402E-09
   -3    0    0    9    4   -0.1772563908E-02    0.1317313793E-09
   -3    0    0   10    4    0.1324846179E-03   -0.3939916466E-08
   -3    0    0   11    4   -0.6337133554E-02    0.1968739590E-08
   -3    0    0   12    4   -0.2471569516E-02   -0.4053394131E-09
   -3    0    0   13    4   -0.1772550220E-02    0.1305493005E-09
   -3    0    0    1    5   -0.1689058157E-01    0.1528133783E-09
   -3    0    0    2    5   -0.9683930203E-08    0.1407549204E-10
   -3    0    0    3    5   -0.8390443956E-08   -0.2670398450E-11
   -3    0    0    4    5    0.3339573161E-03   -0.4166179155E-09
   -3    0    0    5    5    0.9229698154E-03   -0.4903638196E-16
   -3    0    0    6    5   -0.6607943978E-02    0.3569218705E-11
   -3    0    0    7    5   -0.5379044463E-02   -0.3796947010E-09
   -3    0    0    8    5   -0.6506072741E-02   -0.3427099689E-08
   -3    0    0    9    5    0.5168574413E-02   -0.2161610336E-08
   -3    0    0   10    5   -0.6607956460E-02   -0.2482904334E-10
   -3    0    0   11    5    0.5379047919E-02    0.3822320828E-09
   -3    0    0   12    5   -0.6506102024E-02   -0.3445473857E-08
   -3    0    0   13    5    0.5168563308E-02   -0.2161873829E-08
   -3    0    0    1    6   -0.1123653452E-02    0.3903044768E-08
   -3    0    0    2    6    0.1433765154E-01    0.9529256162E-08
   -3    0    0    3    6    0.9940259737E-02    0.2055392209E-07
   -3    0    0    4    6    0.1325963129E-03    0.3947831319E-08
   -3    0    0    5    6   -0.6607896817E-02   -0.3569563048E-11
   -3    0    0    6    6    0.1348042981E-01   -0.8852579477E-15
   -3    0    0    7    6    0.2837274434E-03   -0.1768676056E-08
   -3    0    0    8    6    0.1639164134E-01    0.2363333695E-09
   -3    0    0    9    6   -0.1481208162E-02   -0.3564703123E-08
   -3    0    0   10    6    0.2952935926E-04   -0.9729738051E-11
   -3    0    0   11    6    0.1246802736E-03   -0.1070475712E-07
   -3    0    0   12    6   -0.5725775620E-03   -0.1097313851E-08
   -3    0    0   13    6    0.5433301968E-03    0.1095691224E-07
   -3    0    0    1    7   -0.6469838543E-02   -0.2339859025E-08
   -3    0    0    2    7    0.2692594288E-02   -0.3099950019E-08
   -3    0    0    3    7   -0.1042301018E-02    0.1138566764E-07
   -3    0    0    4    7    0.6337176495E-02    0.1961547950E-08
   -3    0    0    5    7   -0.5379067560E-02    0.3796944963E-09
   -3    0    0    6    7    0.2837552622E-03    0.1768677472E-08
   -3    0    0    7    7    0.5087051134E-02   -0.1076592127E-14
   -3    0    0    8    7   -0.3574553266E-03   -0.1148759123E-08
   -3    0    0    9    7   -0.4984870769E-02    0.3777413451E-09
   -3    0    0   10    7   -0.1247678208E-03   -0.1070205171E-07
   -3    0    0   11    7   -0.1684763328E-02   -0.3666357813E-11
   -3    0    0   12    7    0.1090149215E-03    0.8605153424E-08
   -3    0    0   13    7   -0.1740648235E-02    0.1230572095E-07
   -3    0    0    1    8   -0.7886300132E-03   -0.6961704580E-08
   -3    0    0    2    8    0.7485763141E-02    0.1137882839E-07
   -3    0    0    3    8    0.1371444459E-02    0.2165056608E-07
   -3    0    0    4    8   -0.2471604300E-02    0.4242659843E-09
   -3    0    0    5    8   -0.6506031769E-02    0.3427099505E-08
   -3    0    0    6    8    0.1639169273E-01   -0.2363322073E-09
   -3    0    0    7    8   -0.3574834339E-03    0.1148757766E-08
   -3    0    0    8    8    0.1359936426E-01   -0.8219912272E-15
   -3    0    0    9    8    0.1417968095E-02    0.3460585717E-08
   -3    0    0   10    8   -0.5725814595E-03    0.1088739298E-08
   -3    0    0   11    8   -0.1089095562E-03    0.8607638499E-08
   -3    0    0   12    8   -0.2402435315E-05    0.3303626764E-11
   -3    0    0   13    8   -0.5252796129E-03   -0.7879908342E-08
   -3    0    0    1    9    0.4895002008E-02   -0.5499187458E-08
   -3    0    0    2    9   -0.5092743975E-03    0.1151473590E-07
   -3    0    0    3    9    0.2531445543E-02    0.8434090537E-08
   -3    0    0    4    9   -0.1772514215E-02   -0.1317317262E-09
   -3    0    0    5    9    0.5168557725E-02    0.2161610300E-08
   -3    0    0    6    9   -0.1481192085E-02    0.3564704146E-08
   -3    0    0    7    9   -0.4984870592E-02   -0.3777419662E-09
   -3    0    0    8    9    0.1417984370E-02   -0.3460586668E-08
   -3    0    0    9    9    0.1806186362E-03   -0.1029704776E-14
   -3    0    0   10    9    0.5431904438E-03   -0.1097106162E-07
   -3    0    0   11    9    0.1740790088E-02    0.1230083577E-07
   -3    0    0   12    9   -0.5251478242E-03    0.7868766052E-08
   -3    0    0   13    9    0.1958786901E-02   -0.1032334229E-10
   -3    0    0    1   10   -0.1123713411E-02    0.3910358716E-08
   -3    0    0    2   10   -0.1433779201E-01   -0.9534673578E-08
   -3    0    0    3   10   -0.9940345534E-02   -0.2058116278E-07
   -3    0    0    4   10    0.1325239099E-03    0.3939916261E-08
   -3    0    0    5   10   -0.6607909299E-02    0.2482864608E-10
   -3    0    0    6   10    0.2952935926E-04    0.9729734684E-11
   -3    0    0    7   10   -0.1247798833E-03    0.1070205147E-07
   -3    0    0    8   10   -0.5725742169E-03   -0.1088739214E-08
   -3    0    0    9   10    0.5431891923E-03    0.1097106159E-07
   -3    0    0   10   10    0.1348048002E-01   -0.9100719681E-15
   -3    0    0   11   10   -0.2837374962E-03    0.1761458243E-08
   -3    0    0   12   10    0.1639157667E-01    0.2476852334E-09
   -3    0    0   13   10   -0.1481174911E-02   -0.3569880894E-08
   -3    0    0    1   11    0.6469797852E-02    0.2342417454E-08
   -3    0    0    2   11    0.2692617070E-02   -0.3093617265E-08
   -3    0    0    3   11   -0.1042388454E-02    0.1139047170E-07
   -3    0    0    4   11   -0.6337144829E-02   -0.1968739531E-08
   -3    0    0    5   11    0.5379071016E-02   -0.3822319440E-09
   -3    0    0    6   11    0.1246682111E-03    0.1070475736E-07
   -3    0    0    7   11   -0.1684763328E-02    0.3667486637E-11
   -3    0    0    8   11   -0.1089217287E-03   -0.8607638739E-08
   -3    0    0    9   11    0.1740790235E-02   -0.1230083529E-07
   -3    0    0   10   11   -0.2837653149E-03   -0.1761459652E-08
   -3    0    0   11   11    0.5087015239E-02   -0.1129241106E-14
   -3    0    0   12   11    0.3574653117E-03    0.1148980365E-08
   -3    0    0   13   11    0.4984824391E-02   -0.3797306809E-09
   -3    0    0    1   12   -0.7885316356E-03   -0.6952916644E-08
   -3    0    0    2   12   -0.7485621575E-02   -0.1137224720E-07
   -3    0    0    3   12   -0.1371337426E-02   -0.2165637251E-07
   -3    0    0    4   12   -0.2471605604E-02    0.4053398867E-09
   -3    0    0    5   12   -0.6506061052E-02    0.3445473620E-08
   -3    0    0    6   12   -0.5725848046E-03    0.1097313927E-08
   -3    0    0    7   12    0.1090027491E-03   -0.8605153190E-08
   -3    0    0    8   12   -0.2402435316E-05   -0.3303567018E-11
   -3    0    0    9   12   -0.5251490782E-03   -0.7868766104E-08
   -3    0    0   10   12    0.1639162806E-01   -0.2476840608E-09
   -3    0    0   11   12    0.3574934191E-03   -0.1148978993E-08
   -3    0    0   12   12    0.1359941230E-01   -0.8495807835E-15
   -3    0    0   13   12    0.1417939152E-02    0.3461437623E-08
   -3    0    0    1   13    0.4895081491E-02   -0.5491913996E-08
   -3    0    0    2   13    0.5093867713E-03   -0.1151804182E-07
   -3    0    0    3   13   -0.2531281988E-02   -0.8444090649E-08
   -3    0    0    4   13   -0.1772500527E-02   -0.1305496752E-09
   -3    0    0    5   13    0.5168546620E-02    0.2161873794E-08
   -3    0    0    6   13    0.5433314484E-03   -0.1095691227E-07
   -3    0    0    7   13   -0.1740648088E-02   -0.1230572144E-07
   -3    0    0    8   13   -0.5252783589E-03    0.7879908289E-08
   -3    0    0    9   13    0.1958786901E-02    0.1032340464E-10
   -3    0    0   10   13   -0.1481158834E-02    0.3569881890E-08
   -3    0    0   11   13    0.4984824213E-02    0.3797313124E-09
   -3    0    0   12   13    0.1417955427E-02   -0.3461438594E-08
   -3    0    0   13   13    0.1806099192E-03   -0.9983685338E-15
   -2   -4    0    1    1    0.9529035694E-03    0.3672764040E-09
   -2   -4    0    2    1   -0.1651370978E-07    0.2694915644E-11
   -2   -4    0    3    1   -0.2589298997E-07    0.2709002892E-12
   -2   -4    0    4    1   -0.1348200417E-02    0.3057842365E-09
   -2   -4    0    5    1   -0.1213672546E-02   -0.1490897752E-09
   -2   -4    0    6    1   -0.5674819663E-03    0.6442881413E-07
   -2   -4    0    7    1    0.2385296131E-02    0.1138924426E-07
   -2   -4    0    8    1   -0.1109381357E-02   -0.9490910090E-07
   -2   -4    0    9    1   -0.9954740066E-03   -0.9163239808E-07
   -2   -4    0   10    1   -0.5665308889E-03    0.6442706614E-07
   -2   -4    0   11    1   -0.2385457923E-02   -0.1138655211E-07
   -2   -4    0   12    1   -0.1110854844E-02   -0.9491060909E-07
   -2   -4    0   13    1   -0.9969258635E-03   -0.9163582037E-07
   -2   -4    0    1    2   -0.1496553884E-07    0.4923510145E-12
   -2   -4    0    2    2    0.4179926084E-02    0.2725159574E-09
   -2   -4    0    3    2    0.4164301723E-05    0.5787700787E-09
   -2   -4    0    4    2   -0.7464701028E-08   -0.1421411067E-10
   -2   -4    0    5    2    0.3009217922E-07    0.2149216824E-11
   -2   -4    0    6    2    0.7351269862E-03   -0.7559842876E-07
   -2   -4    0    7    2    0.3610795940E-03    0.1684391022E-07
   -2   -4    0    8    2    0.4075799410E-02    0.1402913925E-06
   -2   -4    0    9    2   -0.2688084395E-02    0.7286478507E-07
   -2   -4    0   10    2   -0.7337567613E-03    0.7560633637E-07
   -2   -4    0   11    2    0.3612669536E-03    0.1683137017E-07
   -2   -4    0   12    2   -0.4077748360E-02   -0.1403074854E-06
   -2   -4    0   13    2    0.2686981131E-02   -0.7285707455E-07
   -2   -4    0    1    3   -0.2081012721E-07    0.3793623818E-11
   -2   -4    0    2    3   -0.3339656810E-05    0.1923547641E-09
   -2   -4    0    3    3    0.4178644771E-02   -0.1794821373E-09
   -2   -4    0    4    3    0.2534187827E-07   -0.9814935030E-11
   -2   -4    0    5    3   -0.5822486708E-08    0.6699843694E-12
   -2   -4    0    6    3   -0.2703979842E-02    0.2901180863E-07
   -2   -4    0    7    3   -0.2269840084E-03   -0.1048750269E-07
   -2   -4    0    8    3   -0.2386838120E-02   -0.8503614502E-07
   -2   -4    0    9    3   -0.7025944148E-03   -0.6058111778E-07
   -2   -4    0   10    3    0.2703532844E-02   -0.2901497526E-07
   -2   -4    0   11    3   -0.2270927795E-03   -0.1046552026E-07
   -2   -4    0   12    3    0.2387956089E-02    0.8505174269E-07
   -2   -4    0   13    3    0.7036006841E-03    0.6058016406E-07
   -2   -4    0    1    4   -0.1409871873E-02   -0.3011818243E-09
   -2   -4    0    2    4   -0.9445251178E-08    0.1294057924E-10
   -2   -4    0    3    4    0.2933556187E-07    0.3453220904E-12
   -2   -4    0    4    4    0.1080696596E-02    0.2536301460E-09
   -2   -4    0    5    4   -0.1097989053E-02   -0.3562927904E-09
   -2   -4    0    6    4    0.9537414033E-03    0.6400684044E-07
   -2   -4    0    7    4    0.5342245934E-02    0.2656538219E-09
   -2   -4    0    8    4   -0.2161893857E-02   -0.8940475827E-07
   -2   -4    0    9    4    0.1740237974E-03   -0.5337970090E-07
   -2   -4    0   10    4    0.9548340876E-03    0.6398481738E-07
   -2   -4    0   11    4   -0.5342237461E-02   -0.2641048647E-09
   -2   -4    0   12    4   -0.2163201895E-02   -0.8941129981E-07
   -2   -4    0   13    4    0.1732375651E-03   -0.5337995590E-07
   -2   -4    0    1    5   -0.1095495279E-02    0.5219222225E-09
   -2   -4    0    2    5    0.3573299815E-07   -0.4877550270E-11
   -2   -4    0    3    5   -0.5645664342E-08    0.7166842344E-11
   -2   -4    0    4    5   -0.1108776841E-02    0.4564233817E-09
   -2   -4    0    5    5    0.1470525521E-02    0.6634373923E-09
   -2   -4    0    6    5   -0.1325303295E-04    0.9478761094E-07
   -2   -4    0    7    5   -0.2768604891E-02    0.2488194797E-07
   -2   -4    0    8    5    0.5331928041E-03   -0.1009414333E-06
   -2   -4    0    9    5    0.5858122806E-03   -0.8592305236E-07
   -2   -4    0   10    5   -0.1176379435E-04    0.9479841632E-07
   -2   -4    0   11    5    0.2768226409E-02   -0.2488140852E-07
   -2   -4    0   12    5    0.5316821974E-03   -0.1009347290E-06
   -2   -4    0   13    5    0.5845267352E-03   -0.8592383320E-07
   -2   -4    0    1    6    0.1047734811E-02   -0.6264492359E-07
   -2   -4    0    2    6    0.2124223565E-02    0.9691179877E-07
   -2   -4    0    3    6    0.6063179649E-03   -0.2908964497E-07
   -2   -4    0    4    6   -0.1300913546E-02   -0.6920101678E-07
   -2   -4    0    5    6   -0.5437469194E-03   -0.9346868875E-07
   -2   -4    0    6    6    0.2786223546E-02    0.1909369997E-09
   -2   -4    0    7    6    0.1317254458E-02   -0.5859917133E-07
   -2   -4    0    8    6    0.1206358172E-02    0.3473526466E-09
   -2   -4    0    9    6    0.1210270938E-02   -0.7085221299E-10
   -2   -4    0   10    6   -0.2372422090E-02   -0.7965465978E-08
   -2   -4    0   11    6   -0.1059200964E-02   -0.1540190683E-05
   -2   -4    0   12    6   -0.1771896893E-02    0.1155581686E-07
   -2   -4    0   13    6   -0.1783552897E-02    0.9994890596E-08
   -2   -4    0    1    7   -0.3100931783E-03   -0.1221007838E-07
   -2   -4    0    2    7    0.1625814526E-03   -0.1468210708E-07
   -2   -4    0    3    7   -0.1598977997E-03    0.8255707493E-08
   -2   -4    0    4    7    0.2096616876E-02   -0.2170293882E-08
   -2   -4    0    5    7   -0.3460791608E-02   -0.2545228710E-07
   -2   -4    0    6    7    0.2611105736E-03    0.6035070083E-07
   -2   -4    0    7    7    0.3186244611E-02   -0.7463885704E-09
   -2   -4    0    8    7   -0.2595960842E-03   -0.5892802446E-07
   -2   -4    0    9    7   -0.2804825025E-03   -0.5992067890E-07
   -2   -4    0   10    7    0.1036641346E-02   -0.1541890131E-05
   -2   -4    0   11    7   -0.3487492054E-02   -0.1990218814E-08
   -2   -4    0   12    7   -0.1018295008E-02    0.1527785207E-05
   -2   -4    0   13    7   -0.9994201446E-03    0.1538101249E-05
   -2   -4    0    1    8    0.2754772555E-03    0.9557970660E-07
   -2   -4    0    2    8    0.1643032881E-02   -0.1432526531E-06
   -2   -4    0    3    8   -0.9272123979E-03    0.8628772491E-07
   -2   -4    0    4    8   -0.2582059461E-02    0.8106823961E-07
   -2   -4    0    5    8    0.4551141117E-02    0.8942191385E-07
   -2   -4    0    6    8    0.1206180131E-02   -0.6922092691E-09
   -2   -4    0    7    8   -0.1324832489E-02    0.5792372842E-07
   -2   -4    0    8    8    0.2789909607E-02   -0.1945608488E-09
   -2   -4    0    9    8   -0.1201001133E-02    0.6917067370E-09
   -2   -4    0   10    8   -0.1774103207E-02   -0.1776170466E-07
   -2   -4    0   11    8    0.1056637387E-02    0.1520992490E-05
   -2   -4    0   12    8   -0.2379126014E-02    0.1289230354E-07
   -2   -4    0   13    8    0.1781269744E-02    0.1668552425E-07
   -2   -4    0    1    9    0.1470564515E-02    0.8120921515E-07
   -2   -4    0    2    9   -0.5705137889E-03   -0.6454355310E-07
   -2   -4    0    3    9    0.2120863634E-02    0.5436942962E-07
   -2   -4    0    4    9   -0.3461577978E-03    0.4798785315E-07
   -2   -4    0    5    9   -0.5872085716E-03    0.8293735894E-07
   -2   -4    0    6    9    0.1205971866E-02    0.1354015441E-09
   -2   -4    0    7    9   -0.1323403812E-02    0.5874027751E-07
   -2   -4    0    8    9   -0.1215892235E-02   -0.1479243672E-09
   -2   -4    0    9    9    0.2790225966E-02    0.6846546819E-10
   -2   -4    0   10    9   -0.1777842762E-02    0.1296890610E-08
   -2   -4    0   11    9    0.1069187067E-02    0.1536829077E-05
   -2   -4    0   12    9    0.1769474302E-02   -0.1038106519E-07
   -2   -4    0   13    9   -0.2389489843E-02   -0.7518734033E-08
   -2   -4    0    1   10    0.1048649159E-02   -0.6264383599E-07
   -2   -4    0    2   10   -0.2122759356E-02   -0.9690132067E-07
   -2   -4    0    3   10   -0.6068001935E-03    0.2907303814E-07
   -2   -4    0    4   10   -0.1299818074E-02   -0.6918352263E-07
   -2   -4    0    5   10   -0.5422826281E-03   -0.9346019230E-07
   -2   -4    0    6   10   -0.2372379574E-02   -0.7964016249E-08
   -2   -4    0    7   10    0.1035903994E-02    0.1540199799E-05
   -2   -4    0    8   10   -0.1772004422E-02    0.1155878073E-07
   -2   -4    0    9   10   -0.1783625983E-02    0.9999031607E-08
   -2   -4    0   10   10    0.2786831112E-02    0.1951436603E-09
   -2   -4    0   11   10   -0.1318167808E-02    0.5861188323E-07
   -2   -4    0   12   10    0.1206009340E-02    0.3530158804E-09
   -2   -4    0   13   10    0.1209903641E-02   -0.7123825141E-10
   -2   -4    0    1   11    0.3099141639E-03    0.1219771596E-07
   -2   -4    0    2   11    0.1627618068E-03   -0.1469120493E-07
   -2   -4    0    3   11   -0.1600020746E-03    0.8245886786E-08
   -2   -4    0    4   11   -0.2096632707E-02    0.2165045761E-08
   -2   -4    0    5   11    0.3460401936E-02    0.2545032441E-07
   -2   -4    0    6   11   -0.1059980937E-02    0.1541894481E-05
   -2   -4    0    7   11   -0.3487467181E-02   -0.1989479921E-08
   -2   -4    0    8   11    0.1041509322E-02   -0.1527795751E-05
   -2   -4    0    9   11    0.1022711464E-02   -0.1538088487E-05
   -2   -4    0   10   11   -0.2620456586E-03   -0.6034220732E-07
   -2   -4    0   11   11    0.3186655387E-02   -0.7663759237E-09
   -2   -4    0   12   11    0.2605213504E-03    0.5892378105E-07
   -2   -4    0   13   11    0.2814158455E-03    0.5992977266E-07
   -2   -4    0    1   12    0.2740161836E-03    0.9557507144E-07
   -2   -4    0    2   12   -0.1645039495E-02    0.1432702607E-06
   -2   -4    0    3   12    0.9283797737E-03   -0.8631780906E-07
   -2   -4    0    4   12   -0.2583311789E-02    0.8108058845E-07
   -2   -4    0    5   12    0.4549685237E-02    0.8942211921E-07
   -2   -4    0    6   12   -0.1773959088E-02   -0.1775187398E-07
   -2   -4    0    7   12   -0.1033493811E-02   -0.1520989164E-05
   -2   -4    0    8   12   -0.2379174666E-02    0.1289812134E-07
   -2   -4    0    9   12    0.1781161256E-02    0.1668828829E-07
   -2   -4    0   10   12    0.1205846947E-02   -0.7006685024E-09
   -2   -4    0   11   12    0.1325732088E-02   -0.5790944312E-07
   -2   -4    0   12   12    0.2790540077E-02   -0.1847442199E-09
   -2   -4    0   13   12   -0.1200651336E-02    0.6962675228E-09
   -2   -4    0    1   13    0.1469183114E-02    0.8121152144E-07
   -2   -4    0    2   13    0.5693955886E-03    0.6454348448E-07
   -2   -4    0    3   13   -0.2119888676E-02   -0.5436022536E-07
   -2   -4    0    4   13   -0.3468943727E-03    0.4798615149E-07
   -2   -4    0    5   13   -0.5884605050E-03    0.8294139425E-07
   -2   -4    0    6   13   -0.1777818268E-02    0.1290505271E-08
   -2   -4    0    7   13   -0.1045936398E-02   -0.1536830292E-05
   -2   -4    0    8   13    0.1769551952E-02   -0.1038524776E-07
   -2   -4    0    9   13   -0.2389441735E-02   -0.7513092123E-08
   -2   -4    0   10   13    0.1205588121E-02    0.1347741016E-09
   -2   -4    0   11   13    0.1324315900E-02   -0.5875157494E-07
   -2   -4    0   12   13   -0.1215559268E-02   -0.1621460639E-09
   -2   -4    0   13   13    0.2790827555E-02    0.6023790986E-10
   -2   -3    0    1    1    0.2093875412E-02    0.9666566159E-11
   -2   -3    0    2    1    0.9505316268E-09    0.5590037924E-11
   -2   -3    0    3    1    0.8889967643E-08   -0.2095000578E-11
   -2   -3    0    4    1   -0.3913024877E-03    0.1058513093E-08
   -2   -3    0    5    1   -0.1332240106E-03    0.2850257877E-08
   -2   -3    0    6    1    0.6804402195E-02   -0.2032978910E-08
   -2   -3    0    7    1   -0.4980064615E-02   -0.7145332676E-09
   -2   -3    0    8    1    0.5278966534E-02    0.3665969629E-08
   -2   -3    0    9    1    0.6641810515E-02    0.3672595894E-08
   -2   -3    0   10    1    0.6804401515E-02   -0.2035553275E-08
   -2   -3    0   11    1    0.4980069932E-02    0.7194591398E-09
   -2   -3    0   12    1    0.5278988411E-02    0.3665796302E-08
   -2   -3    0   13    1    0.6641849569E-02    0.3646440580E-08
   -2   -3    0    1    2    0.4181344451E-09    0.6887753095E-11
   -2   -3    0    2    2   -0.1035501584E-02    0.1550595611E-07
   -2   -3    0    3    2   -0.4606803002E-03   -0.4437189707E-08
   -2   -3    0    4    2    0.2497586515E-07    0.1266614551E-11
   -2   -3    0    5    2   -0.5695523660E-09   -0.1465318557E-10
   -2   -3    0    6    2    0.2546693003E-02   -0.1222216012E-07
   -2   -3    0    7    2   -0.2330180461E-02   -0.1864940861E-08
   -2   -3    0    8    2    0.2463458405E-02   -0.5237580352E-08
   -2   -3    0    9    2   -0.1450234836E-02   -0.3297353798E-07
   -2   -3    0   10    2   -0.2546714037E-02    0.1220992134E-07
   -2   -3    0   11    2   -0.2330270528E-02   -0.1831874187E-08
   -2   -3    0   12    2   -0.2463361267E-02    0.5238596310E-08
   -2   -3    0   13    2    0.1450238176E-02    0.3296376075E-07
   -2   -3    0    1    3    0.6529781444E-09    0.6706484011E-11
   -2   -3    0    2    3   -0.7109130873E-02    0.2344207736E-08
   -2   -3    0    3    3    0.4139451476E-03   -0.1424956063E-07
   -2   -3    0    4    3   -0.1798038159E-07    0.7137777432E-11
   -2   -3    0    5    3   -0.9116536315E-08   -0.1512344601E-13
   -2   -3    0    6    3    0.7146420067E-02   -0.1705772231E-07
   -2   -3    0    7    3   -0.1796993151E-02    0.6267195020E-08
   -2   -3    0    8    3   -0.7963415440E-03    0.9395349061E-08
   -2   -3    0    9    3    0.1736762474E-01    0.1415274528E-07
   -2   -3    0   10    3   -0.7146239890E-02    0.1705129820E-07
   -2   -3    0   11    3   -0.1796970073E-02    0.6257641641E-08
   -2   -3    0   12    3    0.7961463392E-03   -0.9393254154E-08
   -2   -3    0   13    3   -0.1736778976E-01   -0.1413784245E-07
   -2   -3    0    1    4    0.5220260178E-02   -0.9302516812E-09
   -2   -3    0    2    4   -0.3213519634E-08    0.1462495969E-10
   -2   -3    0    3    4   -0.4333436037E-08    0.4832477838E-11
   -2   -3    0    4    4   -0.5072729293E-02   -0.2626146919E-09
   -2   -3    0    5    4   -0.1041444539E-02    0.1453365883E-08
   -2   -3    0    6    4    0.2915696207E-03   -0.6934557460E-08
   -2   -3    0    7    4   -0.5691549706E-02    0.2375386183E-08
   -2   -3    0    8    4    0.4291628913E-02    0.5756902580E-08
   -2   -3    0    9    4    0.5786280037E-03    0.3974273357E-08
   -2   -3    0   10    4    0.2914704397E-03   -0.6930895823E-08
   -2   -3    0   11    4    0.5691510459E-02   -0.2384829084E-08
   -2   -3    0   12    4    0.4291708440E-02    0.5767678692E-08
   -2   -3    0   13    4    0.5786876678E-03    0.3975514105E-08
   -2   -3    0    1    5   -0.1159946974E-02   -0.2163823517E-08
   -2   -3    0    2    5   -0.9182566826E-08   -0.2748172980E-11
   -2   -3    0    3    5    0.2972748030E-07    0.4384843315E-11
   -2   -3    0    4    5    0.2557545547E-03   -0.1087155747E-08
   -2   -3    0    5    5    0.1458965229E-02    0.1250607173E-08
   -2   -3    0    6    5    0.1631387725E-02   -0.6284542955E-09
   -2   -3    0    7    5    0.7275663976E-02   -0.2443348975E-08
   -2   -3    0    8    5   -0.2636207705E-02    0.1312234578E-08
   -2   -3    0    9    5   -0.1044991639E-02    0.4315116452E-08
   -2   -3    0   10    5    0.1631386965E-02   -0.6324398089E-09
   -2   -3    0   11    5   -0.7275629364E-02    0.2448043646E-08
   -2   -3    0   12    5   -0.2636192674E-02    0.1308489412E-08
   -2   -3    0   13    5   -0.1044923135E-02    0.4309700333E-08
   -2   -3    0    1    6    0.1713222825E-03   -0.6059293466E-07
   -2   -3    0    2    6    0.1610250570E-02    0.2105051732E-07
   -2   -3    0    3    6    0.1574172205E-02    0.1095186986E-06
   -2   -3    0    4    6    0.3957731190E-03   -0.1000415355E-06
   -2   -3    0    5    6   -0.1561227533E-02   -0.8094287918E-07
   -2   -3    0    6    6   -0.2856146381E-02    0.5135010889E-09
   -2   -3    0    7    6    0.1165878895E-02   -0.9558023956E-09
   -2   -3    0    8    6   -0.1400548335E-02   -0.1506602985E-07
   -2   -3    0    9    6   -0.3542522031E-02    0.2087753588E-08
   -2   -3    0   10    6    0.3425448854E-02   -0.9428287239E-08
   -2   -3    0   11    6   -0.2532873300E-03   -0.5463026960E-07
   -2   -3    0   12    6   -0.1086567523E-03    0.9120707717E-07
   -2   -3    0   13    6    0.5612231467E-02   -0.2552493558E-07
   -2   -3    0    1    7    0.2269945426E-02   -0.2629727203E-08
   -2   -3    0    2    7    0.6759379791E-07    0.7787756481E-09
   -2   -3    0    3    7    0.1454685799E-03   -0.1602750148E-07
   -2   -3    0    4    7   -0.3400717986E-02   -0.2737033663E-07
   -2   -3    0    5    7   -0.3303396428E-04   -0.8648196298E-08
   -2   -3    0    6    7   -0.1756275053E-02    0.1078185034E-08
   -2   -3    0    7    7   -0.3169460306E-02   -0.7115052436E-09
   -2   -3    0    8    7   -0.4117965879E-03   -0.3291941664E-08
   -2   -3    0    9    7   -0.2710621694E-03    0.4811763488E-09
   -2   -3    0   10    7   -0.1159584407E-02   -0.3826733416E-07
   -2   -3    0   11    7    0.3010418916E-02   -0.8379112196E-09
   -2   -3    0   12    7    0.1401451708E-02    0.4189417950E-07
   -2   -3    0   13    7   -0.2294113252E-03   -0.3136336171E-07
   -2   -3    0    1    8    0.1204800688E-02    0.7899931224E-07
   -2   -3    0    2    8    0.1597353743E-02    0.3084407332E-07
   -2   -3    0    3    8   -0.1565647923E-02   -0.9681026141E-07
   -2   -3    0    4    8    0.4622777997E-03    0.1095812296E-06
   -2   -3    0    5    8   -0.1159143646E-02    0.3230694937E-07
   -2   -3    0    6    8    0.1946192724E-03   -0.2713802558E-08
   -2   -3    0    7    8    0.8153299974E-03    0.9617738272E-09
   -2   -3    0    8    8    0.2076427810E-02    0.1846545465E-07
   -2   -3    0    9    8   -0.5012495715E-02   -0.3991724173E-09
   -2   -3    0   10    8    0.4325571028E-03    0.1728596327E-07
   -2   -3    0   11    8    0.1081002165E-02   -0.4006945715E-07
   -2   -3    0   12    8   -0.1675985785E-02   -0.1199290275E-06
   -2   -3    0   13    8    0.5326714863E-02    0.1975209403E-08
   -2   -3    0    1    9   -0.2784443875E-02    0.8087653088E-07
   -2   -3    0    2    9    0.2011427065E-05    0.5639608312E-09
   -2   -3    0    3    9    0.1919254860E-02   -0.1415538413E-06
   -2   -3    0    4    9    0.4482187057E-02    0.1129329048E-06
   -2   -3    0    5    9   -0.9164059291E-04    0.8392941889E-07
   -2   -3    0    6    9   -0.4039383808E-04    0.1459158093E-07
   -2   -3    0    7    9    0.3127654632E-02    0.3370819693E-08
   -2   -3    0    8    9   -0.1836242769E-02    0.1474770375E-09
   -2   -3    0    9    9    0.6464253795E-03   -0.1940688896E-07
   -2   -3    0   10    9    0.3920154344E-02   -0.7017265057E-07
   -2   -3    0   11    9   -0.4284868077E-02    0.3632683959E-07
   -2   -3    0   12    9    0.4088578810E-04    0.5764786676E-08
   -2   -3    0   13    9    0.6865246644E-03    0.1286484937E-06
   -2   -3    0    1   10    0.1721647703E-03   -0.6058554699E-07
   -2   -3    0    2   10   -0.1609939231E-02   -0.2105543780E-07
   -2   -3    0    3   10   -0.1572627027E-02   -0.1095054192E-06
   -2   -3    0    4   10    0.3972555102E-03   -0.1000487950E-06
   -2   -3    0    5   10   -0.1560014737E-02   -0.8093703266E-07
   -2   -3    0    6   10    0.3425491111E-02   -0.9426837705E-08
   -2   -3    0    7   10    0.2524155153E-03    0.5465131012E-07
   -2   -3    0    8   10   -0.1099877839E-03    0.9119331620E-07
   -2   -3    0    9   10    0.5612562801E-02   -0.2550488214E-07
   -2   -3    0   10   10   -0.2856152631E-02    0.5216605481E-09
   -2   -3    0   11   10   -0.1165883587E-02    0.9462990391E-09
   -2   -3    0   12   10   -0.1400426538E-02   -0.1508011097E-07
   -2   -3    0   13   10   -0.3542619550E-02    0.2086833061E-08
   -2   -3    0    1   11   -0.2269958823E-02    0.2633447779E-08
   -2   -3    0    2   11    0.6471026187E-07    0.7757830559E-09
   -2   -3    0    3   11    0.1456705052E-03   -0.1604266808E-07
   -2   -3    0    4   11    0.3400307793E-02    0.2735697546E-07
   -2   -3    0    5   11    0.3290683250E-04    0.8653407844E-08
   -2   -3    0    6   11    0.1158761243E-02    0.3826345989E-07
   -2   -3    0    7   11    0.3010428178E-02   -0.8452205186E-09
   -2   -3    0    8   11   -0.1400738460E-02   -0.4190174379E-07
   -2   -3    0    9   11    0.2289828278E-03    0.3135833208E-07
   -2   -3    0   10   11    0.1756250759E-02   -0.1087218190E-08
   -2   -3    0   11   11   -0.3169396395E-02   -0.6969894106E-09
   -2   -3    0   12   11    0.4117870141E-03    0.3297367240E-08
   -2   -3    0   13   11    0.2711661260E-03   -0.4962231598E-09
   -2   -3    0    1   12    0.1203651862E-02    0.7899983984E-07
   -2   -3    0    2   12   -0.1596977425E-02   -0.3084810928E-07
   -2   -3    0    3   12    0.1564129860E-02    0.9682470213E-07
   -2   -3    0    4   12    0.4606338828E-03    0.1095880694E-06
   -2   -3    0    5   12   -0.1159706189E-02    0.3230502327E-07
   -2   -3    0    6   12    0.4322886405E-03    0.1728964431E-07
   -2   -3    0    7   12   -0.1081489088E-02    0.4006832027E-07
   -2   -3    0    8   12   -0.1674186492E-02   -0.1199318023E-06
   -2   -3    0    9   12    0.5326700801E-02    0.1988662650E-08
   -2   -3    0   10   12    0.1945206660E-03   -0.2708195772E-08
   -2   -3    0   11   12   -0.8151930351E-03   -0.9668646717E-09
   -2   -3    0   12   12    0.2076229347E-02    0.1847514641E-07
   -2   -3    0   13   12   -0.5012338514E-02   -0.4077498061E-09
   -2   -3    0    1   13   -0.2785738561E-02    0.8088067497E-07
   -2   -3    0    2   13   -0.2027260915E-05   -0.5656376791E-09
   -2   -3    0    3   13   -0.1921477480E-02    0.1415470004E-06
   -2   -3    0    4   13    0.4480452827E-02    0.1129405734E-06
   -2   -3    0    5   13   -0.9281833491E-04    0.8393339005E-07
   -2   -3    0    6   13    0.3921358921E-02   -0.7016843265E-07
   -2   -3    0    7   13    0.4285596088E-02   -0.3630699357E-07
   -2   -3    0    8   13    0.4089653377E-04    0.5766616823E-08
   -2   -3    0    9   13    0.6846994861E-03    0.1286429967E-06
   -2   -3    0   10   13   -0.4025402410E-04    0.1459383158E-07
   -2   -3    0   11   13   -0.3127659188E-02   -0.3373777098E-08
   -2   -3    0   12   13   -0.1836671875E-02    0.1380586964E-09
   -2   -3    0   13   13    0.6462368775E-03   -0.1941438951E-07
   -2   -2    0    1    1    0.1869145028E-01    0.3208283014E-09
   -2   -2    0    2    1   -0.9554973134E-08   -0.1223242532E-10
   -2   -2    0    3    1   -0.3911085393E-08    0.7237141187E-11
   -2   -2    0    4    1    0.4360130763E-01    0.9760457720E-10
   -2   -2    0    5    1   -0.2410695412E-01    0.2600756329E-10
   -2   -2    0    6    1    0.9207322604E-02   -0.1027174202E-08
   -2   -2    0    7    1    0.1139603759E-01   -0.8129652819E-09
   -2   -2    0    8    1    0.3252472139E-02    0.4219324131E-08
   -2   -2    0    9    1   -0.5560027761E-02   -0.3107175489E-09
   -2   -2    0   10    1    0.9207308339E-02   -0.1049075823E-08
   -2   -2    0   11    1   -0.1139602476E-01    0.8156389730E-09
   -2   -2    0   12    1    0.3252539781E-02    0.4213074242E-08
   -2   -2    0   13    1   -0.5560025889E-02   -0.3458548448E-09
   -2   -2    0    1    2    0.2710579366E-08    0.2904639049E-11
   -2   -2    0    2    2   -0.3331960550E-01   -0.1118073690E-06
   -2   -2    0    3    2   -0.4576225669E-03   -0.6182703939E-07
   -2   -2    0    4    2   -0.5937085484E-08    0.1585049443E-10
   -2   -2    0    5    2    0.6966697174E-08    0.1914947642E-11
   -2   -2    0    6    2   -0.5108748367E-02   -0.1548784850E-07
   -2   -2    0    7    2   -0.1012006546E-01   -0.1800239535E-07
   -2   -2    0    8    2   -0.4053406414E-02   -0.6195876992E-08
   -2   -2    0    9    2    0.3342485586E-02    0.3965895556E-07
   -2   -2    0   10    2    0.5108981005E-02    0.1551834213E-07
   -2   -2    0   11    2   -0.1012001128E-01   -0.1801412190E-07
[...]
    3    3    0   10    3    0.1490847722E-02   -0.3979231725E-08
    3    3    0   11    3   -0.3415503207E-03   -0.3627070734E-08
    3    3    0   12    3   -0.2102319101E-02   -0.2315510832E-08
    3    3    0   13    3    0.3353205011E-02   -0.7634021845E-08
    3    3    0    1    4   -0.1786606923E-01   -0.2489165766E-09
    3    3    0    2    4   -0.1774374649E-07    0.4415847093E-11
    3    3    0    3    4    0.4405109610E-08   -0.4113605791E-11
    3    3    0    4    4   -0.2442061785E-01    0.1184851760E-15
    3    3    0    5    4    0.1105839636E-01   -0.7905173096E-09
    3    3    0    6    4    0.1427609434E-03    0.9777647301E-08
    3    3    0    7    4   -0.2275690323E-02   -0.1047416933E-08
    3    3    0    8    4   -0.3270382018E-02    0.8055092759E-08
    3    3    0    9    4    0.3444554234E-02   -0.1106716216E-07
    3    3    0   10    4    0.1429121120E-03    0.9780219908E-08
    3    3    0   11    4    0.2275706272E-02    0.1047086487E-08
    3    3    0   12    4   -0.3270267478E-02    0.8062889546E-08
    3    3    0   13    4    0.3444385583E-02   -0.1106924332E-07
    3    3    0    1    5    0.1592792019E-02    0.5351567644E-09
    3    3    0    2    5    0.6095567965E-08    0.1711355607E-11
    3    3    0    3    5   -0.8313967870E-08    0.8877720550E-11
    3    3    0    4    5    0.1105839593E-01    0.7905169245E-09
    3    3    0    5    5   -0.4210849854E-02    0.4027198626E-16
    3    3    0    6    5    0.1795709652E-02   -0.6759856783E-08
    3    3    0    7    5    0.1766683243E-03    0.7674613049E-08
    3    3    0    8    5    0.1468770518E-02   -0.3550219578E-08
    3    3    0    9    5    0.4410462207E-03    0.9029291119E-08
    3    3    0   10    5    0.1795626902E-02   -0.6769807543E-08
    3    3    0   11    5   -0.1767928259E-03   -0.7680841033E-08
    3    3    0   12    5    0.1468736571E-02   -0.3552754434E-08
    3    3    0   13    5    0.4411311349E-03    0.9026257237E-08
    3    3    0    1    6   -0.3475437397E-02   -0.6291444721E-08
    3    3    0    2    6   -0.3011600142E-02   -0.9204069694E-08
    3    3    0    3    6   -0.1490839675E-02   -0.3963055080E-08
    3    3    0    4    6    0.1427614594E-03   -0.9777647031E-08
    3    3    0    5    6    0.1795710169E-02    0.6759858096E-08
    3    3    0    6    6    0.1359450888E-01    0.3807426521E-14
    3    3    0    7    6    0.3479508682E-03   -0.1295236435E-08
    3    3    0    8    6   -0.1428331254E-02   -0.3684599906E-08
    3    3    0    9    6    0.1640614806E-01   -0.1574959260E-10
    3    3    0   10    6   -0.2723804645E-04   -0.5633160298E-11
    3    3    0   11    6    0.9023449254E-04    0.3159905461E-08
    3    3    0   12    6    0.5337202511E-03    0.9172859590E-08
    3    3    0   13    6   -0.6021296444E-03    0.4073236995E-10
    3    3    0    1    7   -0.1474817817E-02   -0.2417012916E-08
    3    3    0    2    7    0.6248951456E-03   -0.3815346622E-08
    3    3    0    3    7   -0.3415122566E-03    0.3653391721E-08
    3    3    0    4    7   -0.2275689945E-02    0.1047417483E-08
    3    3    0    5    7    0.1766685675E-03   -0.7674612033E-08
    3    3    0    6    7    0.3479506892E-03    0.1295235814E-08
    3    3    0    7    7    0.4985601006E-02    0.1670128813E-14
    3    3    0    8    7   -0.4916104428E-02    0.1629881753E-08
    3    3    0    9    7   -0.3417891826E-03   -0.1434840163E-08
    3    3    0   10    7   -0.9026954384E-04    0.3156273564E-08
    3    3    0   11    7   -0.1749927236E-02   -0.1367761056E-10
    3    3    0   12    7   -0.1733685249E-02   -0.7649610324E-09
    3    3    0   13    7    0.1154624168E-03   -0.5979957320E-08
    3    3    0    1    8   -0.1630368106E-02   -0.3997041429E-08
    3    3    0    2    8   -0.3634426788E-02   -0.6402585323E-08
    3    3    0    3    8    0.2102384969E-02   -0.2334370055E-08
    3    3    0    4    8   -0.3270382070E-02   -0.8055091382E-08
    3    3    0    5    8    0.1468770495E-02    0.3550220306E-08
    3    3    0    6    8   -0.1428331111E-02    0.3684596482E-08
    3    3    0    7    8   -0.4916104422E-02   -0.1629880209E-08
    3    3    0    8    8    0.1366622950E-03    0.1445024713E-14
    3    3    0    9    8    0.1489059397E-02   -0.3074783733E-08
    3    3    0   10    8    0.5335868290E-03   -0.9182681716E-08
    3    3    0   11    8    0.1733764216E-02   -0.7576511828E-09
    3    3    0   12    8    0.1959998484E-02    0.2794169955E-11
    3    3    0   13    8   -0.5439863578E-03    0.6374756414E-08
    3    3    0    1    9   -0.1834375795E-02    0.3426000031E-08
    3    3    0    2    9    0.1993729938E-03   -0.4421741660E-08
    3    3    0    3    9   -0.3353298862E-02   -0.7606719761E-08
    3    3    0    4    9    0.3444554482E-02    0.1106716376E-07
    3    3    0    5    9    0.4410465689E-03   -0.9029288863E-08
    3    3    0    6    9    0.1640614760E-01    0.1574803135E-10
    3    3    0    7    9   -0.3417890273E-03    0.1434842793E-08
    3    3    0    8    9    0.1489059258E-02    0.3074782675E-08
    3    3    0    9    9    0.1354654376E-01   -0.1250133485E-14
    3    3    0   10    9   -0.6021291688E-03   -0.4567883485E-10
    3    3    0   11    9   -0.1154400705E-03   -0.5969005305E-08
    3    3    0   12    9   -0.5441092051E-03   -0.6380864993E-08
    3    3    0   13    9   -0.1914734866E-05    0.2202405521E-11
    3    3    0    1   10   -0.3475344703E-02   -0.6285957933E-08
    3    3    0    2   10    0.3011494607E-02    0.9193818352E-08
    3    3    0    3   10    0.1490848140E-02    0.3979232721E-08
    3    3    0    4   10    0.1429126280E-03   -0.9780219631E-08
    3    3    0    5   10    0.1795627419E-02    0.6769808847E-08
    3    3    0    6   10   -0.2723804620E-04    0.5601676264E-11
    3    3    0    7   10   -0.9026902432E-04   -0.3156286577E-08
    3    3    0    8   10    0.5335869920E-03    0.9182694298E-08
    3    3    0    9   10   -0.6021299407E-03    0.4567938801E-10
    3    3    0   10   10    0.1359456143E-01    0.3804054295E-14
    3    3    0   11   10   -0.3479582816E-03    0.1295337965E-08
    3    3    0   12   10   -0.1428296161E-02   -0.3691334814E-08
    3    3    0   13   10    0.1640608237E-01   -0.3664309481E-10
    3    3    0    1   11    0.1474776056E-02    0.2408794601E-08
    3    3    0    2   11    0.6249554182E-03   -0.3805435883E-08
    3    3    0    3   11   -0.3415510096E-03    0.3627071254E-08
    3    3    0    4   11    0.2275705895E-02   -0.1047087035E-08
    3    3    0    5   11   -0.1767930691E-03    0.7680840016E-08
    3    3    0    6   11    0.9023501188E-04   -0.3159892448E-08
    3    3    0    7   11   -0.1749927236E-02    0.1367656446E-10
    3    3    0    8   11    0.1733764225E-02    0.7576508198E-09
    3    3    0    9   11   -0.1154395731E-03    0.5969019016E-08
    3    3    0   10   11   -0.3479581026E-03   -0.1295337348E-08
    3    3    0   11   11    0.4985564216E-02    0.1682216853E-14
    3    3    0   12   11    0.4916051115E-02   -0.1630134491E-08
    3    3    0   13   11    0.3417981338E-03    0.1426055163E-08
    3    3    0    1   12   -0.1630301841E-02   -0.3999440728E-08
    3    3    0    2   12    0.3634307472E-02    0.6407564999E-08
    3    3    0    3   12   -0.2102318732E-02    0.2315511873E-08
    3    3    0    4   12   -0.3270267530E-02   -0.8062888164E-08
    3    3    0    5   12    0.1468736549E-02    0.3552755176E-08
    3    3    0    6   12    0.5337200878E-03   -0.9172847007E-08
    3    3    0    7   12   -0.1733685240E-02    0.7649613948E-09
    3    3    0    8   12    0.1959998484E-02   -0.2792867786E-11
    3    3    0    9   12   -0.5441093720E-03    0.6380878012E-08
    3    3    0   10   12   -0.1428296019E-02    0.3691331379E-08
    3    3    0   11   12    0.4916051109E-02    0.1630132951E-08
    3    3    0   12   12    0.1366601789E-03    0.1451180833E-14
    3    3    0   13   12    0.1489023070E-02   -0.3069671125E-08
    3    3    0    1   13   -0.1834439969E-02    0.3422505900E-08
    3    3    0    2   13   -0.1993184222E-03    0.4414361416E-08
    3    3    0    3   13    0.3353203802E-02    0.7634021477E-08
    3    3    0    4   13    0.3444385831E-02    0.1106924492E-07
    3    3    0    5   13    0.4411314832E-03   -0.9026254974E-08
    3    3    0    6   13   -0.6021288725E-03   -0.4073181701E-10
    3    3    0    7   13    0.1154629144E-03    0.5979943609E-08
    3    3    0    8   13   -0.5439861912E-03   -0.6374743394E-08
    3    3    0    9   13   -0.1914735117E-05   -0.2171734184E-11
    3    3    0   10   13    0.1640608191E-01    0.3664153703E-10
    3    3    0   11   13    0.3417979785E-03   -0.1426057800E-08
    3    3    0   12   13    0.1489022931E-02    0.3069670067E-08
    3    3    0   13   13    0.1354659553E-01   -0.1265321285E-14
    4    2    0    1    1    0.9528973688E-03    0.3672763834E-09
    4    2    0    2    1   -0.1651371097E-07    0.2694917982E-11
    4    2    0    3    1   -0.2589298932E-07    0.2708976049E-12
    4    2    0    4    1   -0.1348197396E-02    0.3057842087E-09
    4    2    0    5    1   -0.1213677783E-02   -0.1490897544E-09
    4    2    0    6    1   -0.5674818370E-03    0.6442881420E-07
    4    2    0    7    1    0.2385298465E-02    0.1138924379E-07
    4    2    0    8    1   -0.1109381841E-02   -0.9490910066E-07
    4    2    0    9    1   -0.9954755090E-03   -0.9163239868E-07
    4    2    0   10    1   -0.5665307596E-03    0.6442706619E-07
    4    2    0   11    1   -0.2385460257E-02   -0.1138655165E-07
    4    2    0   12    1   -0.1110855329E-02   -0.9491060886E-07
    4    2    0   13    1   -0.9969273658E-03   -0.9163582101E-07
    4    2    0    1    2   -0.1496553773E-07    0.4923486515E-12
    4    2    0    2    2    0.4179922427E-02    0.2724835010E-09
    4    2    0    3    2    0.4153817817E-05    0.5787565080E-09
    4    2    0    4    2   -0.7464702093E-08   -0.1421410916E-10
    4    2    0    5    2    0.3009217971E-07    0.2149221352E-11
    4    2    0    6    2    0.7351273134E-03   -0.7559843060E-07
    4    2    0    7    2    0.3610800600E-03    0.1684390928E-07
    4    2    0    8    2    0.4075799929E-02    0.1402913909E-06
    4    2    0    9    2   -0.2688084749E-02    0.7286478653E-07
    4    2    0   10    2   -0.7337570885E-03    0.7560633820E-07
    4    2    0   11    2    0.3612674195E-03    0.1683136919E-07
    4    2    0   12    2   -0.4077748880E-02   -0.1403074838E-06
    4    2    0   13    2    0.2686981484E-02   -0.7285707596E-07
    4    2    0    1    3   -0.2081012746E-07    0.3793623801E-11
    4    2    0    2    3   -0.3333308159E-05    0.1923684458E-09
    4    2    0    3    3    0.4178648390E-02   -0.1794496143E-09
    4    2    0    4    3    0.2534187817E-07   -0.9814935311E-11
    4    2    0    5    3   -0.5822484822E-08    0.6699855211E-12
    4    2    0    6    3   -0.2703979256E-02    0.2901180734E-07
    4    2    0    7    3   -0.2269831782E-03   -0.1048750207E-07
    4    2    0    8    3   -0.2386837192E-02   -0.8503614570E-07
    4    2    0    9    3   -0.7025949942E-03   -0.6058111617E-07
    4    2    0   10    3    0.2703532257E-02   -0.2901497394E-07
    4    2    0   11    3   -0.2270919493E-03   -0.1046551967E-07
    4    2    0   12    3    0.2387955161E-02    0.8505174338E-07
    4    2    0   13    3    0.7036012635E-03    0.6058016248E-07
    4    2    0    1    4   -0.1409873986E-02   -0.3011819075E-09
    4    2    0    2    4   -0.9445249984E-08    0.1294058166E-10
    4    2    0    3    4    0.2933556202E-07    0.3453198736E-12
    4    2    0    4    4    0.1080698819E-02    0.2536300728E-09
    4    2    0    5    4   -0.1097982799E-02   -0.3562928147E-09
    4    2    0    6    4    0.9537400811E-03    0.6400683995E-07
    4    2    0    7    4    0.5342244453E-02    0.2656542174E-09
    4    2    0    8    4   -0.2161893461E-02   -0.8940475860E-07
    4    2    0    9    4    0.1740235743E-03   -0.5337970082E-07
    4    2    0   10    4    0.9548327654E-03    0.6398481690E-07
    4    2    0   11    4   -0.5342235980E-02   -0.2641052325E-09
    4    2    0   12    4   -0.2163201499E-02   -0.8941130016E-07
    4    2    0   13    4    0.1732373420E-03   -0.5337995582E-07
    4    2    0    1    5   -0.1095496322E-02    0.5219222589E-09
    4    2    0    2    5    0.3573299795E-07   -0.4877549093E-11
    4    2    0    3    5   -0.5645665832E-08    0.7166841739E-11
    4    2    0    4    5   -0.1108775699E-02    0.4564234060E-09
    4    2    0    5    5    0.1470529509E-02    0.6634373137E-09
    4    2    0    6    5   -0.1325369533E-04    0.9478761088E-07
    4    2    0    7    5   -0.2768605916E-02    0.2488194824E-07
    4    2    0    8    5    0.5331929991E-03   -0.1009414333E-06
    4    2    0    9    5    0.5858123235E-03   -0.8592305229E-07
    4    2    0   10    5   -0.1176445674E-04    0.9479841629E-07
    4    2    0   11    5    0.2768227435E-02   -0.2488140877E-07
    4    2    0   12    5    0.5316823924E-03   -0.1009347290E-06
    4    2    0   13    5    0.5845267782E-03   -0.8592383313E-07
    4    2    0    1    6    0.1047734570E-02   -0.6264492372E-07
    4    2    0    2    6    0.2124219879E-02    0.9691178184E-07
    4    2    0    3    6    0.6063091800E-03   -0.2908965190E-07
    4    2    0    4    6   -0.1300912336E-02   -0.6920101695E-07
    4    2    0    5    6   -0.5437421356E-03   -0.9346868886E-07
    4    2    0    6    6    0.2786220424E-02    0.1909374515E-09
    4    2    0    7    6    0.1317255298E-02   -0.5859917175E-07
    4    2    0    8    6    0.1206354635E-02    0.3473524662E-09
    4    2    0    9    6    0.1210272737E-02   -0.7085255993E-10
    4    2    0   10    6   -0.2372422856E-02   -0.7965466120E-08
    4    2    0   11    6   -0.1059200188E-02   -0.1540190683E-05
    4    2    0   12    6   -0.1771896640E-02    0.1155581686E-07
    4    2    0   13    6   -0.1783553393E-02    0.9994890534E-08
    4    2    0    1    7   -0.3101011953E-03   -0.1221007885E-07
    4    2    0    2    7    0.1625779094E-03   -0.1468211893E-07
    4    2    0    3    7   -0.1599039180E-03    0.8255701477E-08
    4    2    0    4    7    0.2096622288E-02   -0.2170293922E-08
    4    2    0    5    7   -0.3460787869E-02   -0.2545228682E-07
    4    2    0    6    7    0.2611103505E-03    0.6035070045E-07
    4    2    0    7    7    0.3186244613E-02   -0.7463882226E-09
    4    2    0    8    7   -0.2595960573E-03   -0.5892802416E-07
    4    2    0    9    7   -0.2804827111E-03   -0.5992067872E-07
    4    2    0   10    7    0.1036639852E-02   -0.1541890131E-05
    4    2    0   11    7   -0.3487492036E-02   -0.1990219031E-08
    4    2    0   12    7   -0.1018294998E-02    0.1527785207E-05
    4    2    0   13    7   -0.9994216215E-03    0.1538101249E-05
    4    2    0    1    8    0.2754778845E-03    0.9557970661E-07
    4    2    0    2    8    0.1643028958E-02   -0.1432526658E-06
    4    2    0    3    8   -0.9272192358E-03    0.8628771771E-07
    4    2    0    4    8   -0.2582059966E-02    0.8106823956E-07
    4    2    0    5    8    0.4551140858E-02    0.8942191367E-07
    4    2    0    6    8    0.1206176494E-02   -0.6922094217E-09
    4    2    0    7    8   -0.1324832481E-02    0.5792372888E-07
    4    2    0    8    8    0.2789909581E-02   -0.1945604448E-09
    4    2    0    9    8   -0.1201004754E-02    0.6917070354E-09
    4    2    0   10    8   -0.1774103647E-02   -0.1776170450E-07
    4    2    0   11    8    0.1056637395E-02    0.1520992490E-05
    4    2    0   12    8   -0.2379126015E-02    0.1289230358E-07
    4    2    0   13    8    0.1781269304E-02    0.1668552459E-07
    4    2    0    1    9    0.1470568075E-02    0.8120921495E-07
    4    2    0    2    9   -0.5705079898E-03   -0.6454353867E-07
    4    2    0    3    9    0.2120871253E-02    0.5436944121E-07
    4    2    0    4    9   -0.3461592168E-03    0.4798785299E-07
    4    2    0    5    9   -0.5872053223E-03    0.8293735891E-07
    4    2    0    6    9    0.1205970102E-02    0.1354015719E-09
    4    2    0    7    9   -0.1323403017E-02    0.5874027761E-07
    4    2    0    8    9   -0.1215895768E-02   -0.1479243256E-09
    4    2    0    9    9    0.2790229126E-02    0.6846593774E-10
    4    2    0   10    9   -0.1777842274E-02    0.1296890597E-08
    4    2    0   11    9    0.1069187858E-02    0.1536829077E-05
    4    2    0   12    9    0.1769474554E-02   -0.1038106505E-07
    4    2    0   13    9   -0.2389489083E-02   -0.7518733864E-08
    4    2    0    1   10    0.1048648918E-02   -0.6264383612E-07
    4    2    0    2   10   -0.2122755670E-02   -0.9690130372E-07
    4    2    0    3   10   -0.6067914086E-03    0.2907304506E-07
    4    2    0    4   10   -0.1299816864E-02   -0.6918352279E-07
    4    2    0    5   10   -0.5422778444E-03   -0.9346019243E-07
    4    2    0    6   10   -0.2372380339E-02   -0.7964016394E-08
    4    2    0    7   10    0.1035903218E-02    0.1540199799E-05
    4    2    0    8   10   -0.1772004169E-02    0.1155878073E-07
    4    2    0    9   10   -0.1783626480E-02    0.9999031546E-08
    4    2    0   10   10    0.2786827990E-02    0.1951442528E-09
    4    2    0   11   10   -0.1318168649E-02    0.5861188359E-07
    4    2    0   12   10    0.1206005803E-02    0.3530157000E-09
    4    2    0   13   10    0.1209905440E-02   -0.7123863305E-10
    4    2    0    1   11    0.3099221809E-03    0.1219771642E-07
    4    2    0    2   11    0.1627582637E-03   -0.1469121682E-07
    4    2    0    3   11   -0.1600081929E-03    0.8245880694E-08
    4    2    0    4   11   -0.2096638119E-02    0.2165045775E-08
    4    2    0    5   11    0.3460398196E-02    0.2545032415E-07
    4    2    0    6   11   -0.1059979443E-02    0.1541894481E-05
    4    2    0    7   11   -0.3487467163E-02   -0.1989480125E-08
    4    2    0    8   11    0.1041509312E-02   -0.1527795751E-05
    4    2    0    9   11    0.1022712941E-02   -0.1538088487E-05
    4    2    0   10   11   -0.2620454354E-03   -0.6034220696E-07
    4    2    0   11   11    0.3186655389E-02   -0.7663755009E-09
    4    2    0   12   11    0.2605213236E-03    0.5892378078E-07
    4    2    0   13   11    0.2814160540E-03    0.5992977245E-07
    4    2    0    1   12    0.2740168126E-03    0.9557507143E-07
    4    2    0    2   12   -0.1645035573E-02    0.1432702734E-06
    4    2    0    3   12    0.9283866116E-03   -0.8631780187E-07
    4    2    0    4   12   -0.2583312294E-02    0.8108058837E-07
    4    2    0    5   12    0.4549684978E-02    0.8942211905E-07
    4    2    0    6   12   -0.1773959528E-02   -0.1775187383E-07
    4    2    0    7   12   -0.1033493818E-02   -0.1520989164E-05
    4    2    0    8   12   -0.2379174667E-02    0.1289812137E-07
    4    2    0    9   12    0.1781160816E-02    0.1668828863E-07
    4    2    0   10   12    0.1205843311E-02   -0.7006686481E-09
    4    2    0   11   12    0.1325732080E-02   -0.5790944356E-07
    4    2    0   12   12    0.2790540051E-02   -0.1847438169E-09
    4    2    0   13   12   -0.1200654956E-02    0.6962678836E-09
    4    2    0    1   13    0.1469186674E-02    0.8121152126E-07
    4    2    0    2   13    0.5693897895E-03    0.6454347008E-07
    4    2    0    3   13   -0.2119896294E-02   -0.5436023692E-07
    4    2    0    4   13   -0.3468957917E-03    0.4798615132E-07
    4    2    0    5   13   -0.5884572557E-03    0.8294139423E-07
    4    2    0    6   13   -0.1777817780E-02    0.1290505258E-08
    4    2    0    7   13   -0.1045937190E-02   -0.1536830292E-05
    4    2    0    8   13    0.1769552204E-02   -0.1038524761E-07
    4    2    0    9   13   -0.2389440974E-02   -0.7513091941E-08
    4    2    0   10   13    0.1205586356E-02    0.1347741016E-09
    4    2    0   11   13    0.1324315105E-02   -0.5875157500E-07
    4    2    0   12   13   -0.1215562802E-02   -0.1621460431E-09
    4    2    0   13   13    0.2790830716E-02    0.6023832665E-10
